 VARIABLES = X Y
 ZONE N = 41, E = 40, DATAPACKING= POINT, ZONETYPE= FETRIANGLE
1582.2  417.905
2792.77  301.872
4004.37  212.207
5216.87  146.195
6430.18  101.126
7644.16  73.8839
8858.64  60.1597
10073.4  55.4274
11288.3  55.1601
12503.2  54.9086
13717.9  52.5587
14932.5  48.689
16147.1  44.0275
17361.6  39.3025
18576.1  35.2387
19790.7  32.2418
21005.3  30.1338
22219.9  28.6742
23434.5  27.6227
24649.2  26.7389
25863.8  25.8061
27078.4  24.7861
28293  23.7214
29507.6  22.655
30722.2  21.63
31936.8  20.6893
33151.5  19.8609
34366.1  19.133
35580.7  18.4876
36795.3  17.9064
38009.9  17.3713
39224.5  16.8642
40439.1  16.3736
41653.7  15.9002
42868.3  15.4457
44083  15.0122
45297.6  14.6015
46512.2  14.2154
47726.8  13.8538
48941.4  13.5116
50156  13.183
1  2  1
2  3  2
3  4  3
4  5  4
5  6  5
6  7  6
7  8  7
8  9  8
9  10  9
10  11  10
11  12  11
12  13  12
13  14  13
14  15  14
15  16  15
16  17  16
17  18  17
18  19  18
19  20  19
20  21  20
21  22  21
22  23  22
23  24  23
24  25  24
25  26  25
26  27  26
27  28  27
28  29  28
29  30  29
30  31  30
31  32  31
32  33  32
33  34  33
34  35  34
35  36  35
36  37  36
37  38  37
38  39  38
39  40  39
40  41  40
 VARIABLES = X Y
 ZONE N = 41, E = 40, DATAPACKING= POINT, ZONETYPE= FETRIANGLE
455.156  1527.71
1615.71  978.635
2798.49  564.287
4001.36  271.874
5222.19  88.4974
6458.04  -3.24685
7704.93  -26.9387
8958.83  -6.60374
10215.7  33.7323
11471.4  70.1266
12723.6  87.8624
13972.7  89.728
15219.8  80.4666
16465.5  64.8211
17710.9  47.5346
18956.7  33.3114
20203.5  24.6285
21451.1  20.5619
22699.3  19.901
23947.8  21.4353
25196.4  23.9543
26445  26.2473
27693.4  27.3424
28941.5  27.2678
30189.5  26.3135
31437.3  24.7696
32685.1  22.9262
33932.8  21.0733
35180.6  19.4981
36428.5  18.3414
37676.4  17.5365
38924.3  17.0007
40172.3  16.6511
41420.3  16.4051
42668.3  16.1798
43916.3  15.8942
45164.3  15.5197
46412.2  15.0912
47660.1  14.6475
48908.1  14.2273
50156  13.8637
1  2  1
2  3  2
3  4  3
4  5  4
5  6  5
6  7  6
7  8  7
8  9  8
9  10  9
10  11  10
11  12  11
12  13  12
13  14  13
14  15  14
15  16  15
16  17  16
17  18  17
18  19  18
19  20  19
20  21  20
21  22  21
22  23  22
23  24  23
24  25  24
25  26  25
26  27  26
27  28  27
28  29  28
29  30  29
30  31  30
31  32  31
32  33  32
33  34  33
34  35  34
35  36  35
36  37  36
37  38  37
38  39  38
39  40  39
40  41  40
 VARIABLES = X Y
 ZONE N = 41, E = 40, DATAPACKING= POINT, ZONETYPE= FETRIANGLE
300.361  2644.9
1205.69  1591.22
2208.23  811.769
3299.67  283.236
4470.6  -20.7634
5704.81  -145.075
6983.59  -141.411
8288.24  -61.4965
9600.04  42.9454
10901.1  122.555
12185.9  161.196
13457.5  167.249
14719.7  149.668
15975.8  117.407
17229.4  79.4179
18484.1  44.6555
19742.8  20.5467
21005.4  7.15564
22271.3  2.32803
23539.6  3.90914
24809.4  9.74428
26080  17.6787
27350.4  25.5578
28620  31.3048
29888.5  34.2276
31156.1  34.8234
32422.9  33.6281
33689.2  31.1774
34955.2  28.0072
36221.1  24.6534
37487.2  21.6517
38753.5  19.4859
40020.2  18.183
41287  17.5327
42554.1  17.3227
43821.2  17.341
45088.3  17.3752
46355.3  17.2162
47622.3  16.8027
48889.1  16.2884
50156  15.839
1  2  1
2  3  2
3  4  3
4  5  4
5  6  5
6  7  6
7  8  7
8  9  8
9  10  9
10  11  10
11  12  11
12  13  12
13  14  13
14  15  14
15  16  15
16  17  16
17  18  17
18  19  18
19  20  19
20  21  20
21  22  21
22  23  22
23  24  23
24  25  24
25  26  25
26  27  26
27  28  27
28  29  28
29  30  29
30  31  30
31  32  31
32  33  32
33  34  33
34  35  34
35  36  35
36  37  36
37  38  37
38  39  38
39  40  39
40  41  40
 VARIABLES = X Y
 ZONE N = 41, E = 40, DATAPACKING= POINT, ZONETYPE= FETRIANGLE
261.737  3624.82
876.429  2232.09
1668.94  1194.21
2624.31  481.53
3726.5  62.2405
4947.38  -118.557
6251.51  -129.812
7603.32  -40.6738
8967.27  79.708
10311.2  168.603
11628.4  212.353
12924.2  219.951
14203.8  200.511
15472.6  163.148
16735.9  116.976
17998.9  71.1094
19266.8  34.4386
20541.8  10.532
21822.7  -2.45543
23108.4  -6.61144
24397.8  -4.02368
25689.7  3.22016
26982.9  13.0324
28276.3  23.3253
29568.8  32.0113
30859.3  37.4429
32148  39.7809
33435.3  39.65
34721.5  37.675
36006.9  34.4805
37292  30.6913
38577  26.9322
39862.4  23.8279
41148.4  21.8519
42435  20.845
43721.8  20.4823
45008.9  20.4387
46295.9  20.3894
47582.7  20.044
48869.4  19.4648
50156  18.916
1  2  1
2  3  2
3  4  3
4  5  4
5  6  5
6  7  6
7  8  7
8  9  8
9  10  9
10  11  10
11  12  11
12  13  12
13  14  13
14  15  14
15  16  15
16  17  16
17  18  17
18  19  18
19  20  19
20  21  20
21  22  21
22  23  22
23  24  23
24  25  24
25  26  25
26  27  26
27  28  27
28  29  28
29  30  29
30  31  30
31  32  31
32  33  32
33  34  33
34  35  34
35  36  35
36  37  36
37  38  37
38  39  38
39  40  39
40  41  40
 VARIABLES = X Y
 ZONE N = 41, E = 40, DATAPACKING= POINT, ZONETYPE= FETRIANGLE
253.527  4509.29
653.247  2910.74
1278.52  1693.6
2110.29  825.939
3129.44  275.67
4308.13  -3.22878
5603.67  -80.7387
6971.84  -29.208
8368.47  79.0152
9750.74  173.793
11101.3  225.882
12425.1  242.057
13728.1  230.328
15015.9  198.705
16294.6  155.196
17569.7  107.811
18847.2  64.5593
20132  32.3174
21424.6  11.537
22723.6  0.405289
24027.9  -2.8931
25336.2  -0.173553
26647.2  6.74854
27959.7  16.0578
29272.5  25.9389
30584.3  34.5763
31894  40.2782
33201.4  42.7789
34506.9  42.7293
35811.1  40.7952
37114.3  37.6426
38417.1  33.9374
39719.9  30.3456
41023.2  27.5309
42327.3  25.8497
43632  25.0236
44936.9  24.6958
46241.9  24.5096
47546.8  24.1165
48851.4  23.452
50156  22.7934
1  2  1
2  3  2
3  4  3
4  5  4
5  6  5
6  7  6
7  8  7
8  9  8
9  10  9
10  11  10
11  12  11
12  13  12
13  14  13
14  15  14
15  16  15
16  17  16
17  18  17
18  19  18
19  20  19
20  21  20
21  22  21
22  23  22
23  24  23
24  25  24
25  26  25
26  27  26
27  28  27
28  29  28
29  30  29
30  31  30
31  32  31
32  33  32
33  34  33
34  35  34
35  36  35
36  37  36
37  38  37
38  39  38
39  40  39
40  41  40
 VARIABLES = X Y
 ZONE N = 41, E = 40, DATAPACKING= POINT, ZONETYPE= FETRIANGLE
260.416  5217.83
539.882  3509.14
1059.91  2177.89
1800.94  1193.72
2743.43  526.258
3864.73  140.597
5125.79  -22.4756
6482.1  -30.2443
7889.14  50.0007
9302.41  150.97
10686.9  219.439
12040.9  251.538
13370.2  254.218
14680.4  234.432
15977.1  199.131
17266.1  155.266
18552.9  109.79
19843.3  69.6526
21141.8  40.5083
22448.4  22.1757
23761.8  12.837
25080.4  10.6744
26403  13.8697
27728.2  20.6051
29054.5  29.0627
30380.5  37.4244
31705  43.8737
33026.9  47.2095
34346.6  47.8318
35664.6  46.3976
36981.5  43.5639
38297.7  39.9877
39613.7  36.326
40930.1  33.2358
42247.4  31.2181
43565.2  30.1022
44883.5  29.5361
46201.9  29.168
47520.1  28.6497
48838.1  27.8697
50156  27.0916
1  2  1
2  3  2
3  4  3
4  5  4
5  6  5
6  7  6
7  8  7
8  9  8
9  10  9
10  11  10
11  12  11
12  13  12
13  14  13
14  15  14
15  16  15
16  17  16
17  18  17
18  19  18
19  20  19
20  21  20
21  22  21
22  23  22
23  24  23
24  25  24
25  26  25
26  27  26
27  28  27
28  29  28
29  30  29
30  31  30
31  32  31
32  33  32
33  34  33
34  35  34
35  36  35
36  37  36
37  38  37
38  39  38
39  40  39
40  41  40
 VARIABLES = X Y
 ZONE N = 41, E = 40, DATAPACKING= POINT, ZONETYPE= FETRIANGLE
279.153  5639.9
547.016  3906.88
1042.66  2530.67
1748.19  1483.55
2645.72  737.838
3716.67  264.788
4931.68  19.8233
6252.99  -54.0747
7642.59  -14.258
9062.47  81.9215
10474.8  177.299
11855.6  235.4
13207.8  258.908
14536.9  254.865
15848.7  230.316
17148.8  192.301
18442.9  147.864
19736.8  104.049
21035.9  67.8712
22343.8  43.4579
23659.4  29.4204
24981.2  23.7504
26307.6  24.4396
27637.1  29.4797
28968.2  36.8623
30299.4  44.5791
31629.1  50.6227
32956.4  53.6135
34281.4  53.916
35604.8  52.1949
36927.1  49.1149
38248.7  45.3408
39570.2  41.5372
40892.1  38.3689
42214.9  36.2826
43538.2  35.0629
44861.9  34.3688
46185.7  33.8589
47509.3  33.1969
48832.7  32.2872
50156  31.3899
1  2  1
2  3  2
3  4  3
4  5  4
5  6  5
6  7  6
7  8  7
8  9  8
9  10  9
10  11  10
11  12  11
12  13  12
13  14  13
14  15  14
15  16  15
16  17  16
17  18  17
18  19  18
19  20  19
20  21  20
21  22  21
22  23  22
23  24  23
24  25  24
25  26  25
26  27  26
27  28  27
28  29  28
29  30  29
30  31  30
31  32  31
32  33  32
33  34  33
34  35  34
35  36  35
36  37  36
37  38  37
38  39  38
39  40  39
40  41  40
 VARIABLES = X Y
 ZONE N = 41, E = 40, DATAPACKING= POINT, ZONETYPE= FETRIANGLE
316.4  5590.64
704.843  3936.43
1283.24  2606.79
2036.93  1576.95
2951.25  822.148
4011.39  317.346
5196.71  28.1533
6479.33  -91.579
7830.89  -88.7437
9223.04  -10.2339
10627.4  97.0573
12016.1  186.883
13375.4  236.209
14709.9  251.091
16025  239.426
17326.4  209.112
18619.5  168.047
19909.9  124.127
21203.2  85.249
22504  57.9275
23812.2  41.9511
25126.3  35.0697
26444.7  35.0327
27766.1  39.5897
29088.8  46.4901
30411.5  53.4834
31732.5  58.3539
33051.3  60.1333
34368.3  59.4137
35684  56.8855
36998.8  53.239
38313.2  49.1649
39627.8  45.3534
40942.9  42.4593
42258.6  40.5976
43574.8  39.4641
44891.2  38.7443
46207.6  38.1231
47523.9  37.3003
48840  36.2645
50156  35.2675
1  2  1
2  3  2
3  4  3
4  5  4
5  6  5
6  7  6
7  8  7
8  9  8
9  10  9
10  11  10
11  12  11
12  13  12
13  14  13
14  15  14
15  16  15
16  17  16
17  18  17
18  19  18
19  20  19
20  21  20
21  22  21
22  23  22
23  24  23
24  25  24
25  26  25
26  27  26
27  28  27
28  29  28
29  30  29
30  31  30
31  32  31
32  33  32
33  34  33
34  35  34
35  36  35
36  37  36
37  38  37
38  39  38
39  40  39
40  41  40
 VARIABLES = X Y
 ZONE N = 41, E = 40, DATAPACKING= POINT, ZONETYPE= FETRIANGLE
394.837  4870.91
1080.26  3466.64
1886.49  2332.22
2804.03  1446.65
3823.36  788.918
4934.96  337.981
6127.22  68.3326
7383.64  -55.9125
8687.05  -72.107
10020.3  -17.6032
11366.1  70.2464
12707.5  154.09
14031  204.778
15337.3  222.985
16630.2  216.158
17913.6  191.746
19191.3  157.194
20467.2  119.952
21745.1  87.467
23027.9  65.3791
24315.3  52.9764
25606.3  48.1512
26899.8  48.7958
28194.8  52.8025
29490.3  58.0635
30785.3  62.4712
32078.9  64.3708
33371.2  63.9196
34662.5  61.7284
35953.3  58.4077
37243.6  54.5682
38534  50.8206
39824.7  47.7633
41115.8  45.6182
42407.1  44.1674
43698.7  43.1683
44990.3  42.3782
46281.9  41.5544
47573.3  40.5244
48864.7  39.3962
50156  38.3447
1  2  1
2  3  2
3  4  3
4  5  4
5  6  5
6  7  6
7  8  7
8  9  8
9  10  9
10  11  10
11  12  11
12  13  12
13  14  13
14  15  14
15  16  15
16  17  16
17  18  17
18  19  18
19  20  19
20  21  20
21  22  21
22  23  22
23  24  23
24  25  24
25  26  25
26  27  26
27  28  27
28  29  28
29  30  29
30  31  30
31  32  31
32  33  32
33  34  33
34  35  34
35  36  35
36  37  36
37  38  37
38  39  38
39  40  39
40  41  40
 VARIABLES = X Y
 ZONE N = 41, E = 40, DATAPACKING= POINT, ZONETYPE= FETRIANGLE
687.828  2940.14
1752.21  2124.77
2854.16  1466.02
3990.59  951.221
5158.41  567.703
6354.55  302.795
7575.42  141.819
8815.93  64.1516
10070.7  48.0708
11334.4  71.8549
12601.6  113.782
13867  152.143
15126.8  171.662
16381.5  174.018
17632.5  163.646
18881  144.982
20128.1  122.465
21375.2  100.528
22623.4  83.4402
23873.1  72.5106
25124.1  66.5422
26375.9  64.2587
27628.3  64.3834
28880.8  65.6398
30133.3  66.7514
31385.4  66.6327
32637.1  65.2607
33888.5  62.9794
35139.8  60.1329
36390.9  57.0657
37642  54.1221
38893.2  51.6328
40144.5  49.6856
41395.9  48.1575
42647.4  46.9185
43898.9  45.8384
45150.3  44.7874
46401.8  43.6659
47653.2  42.5047
48904.6  41.369
50156  40.3204
1  2  1
2  3  2
3  4  3
4  5  4
5  6  5
6  7  6
7  8  7
8  9  8
9  10  9
10  11  10
11  12  11
12  13  12
13  14  13
14  15  14
15  16  15
16  17  16
17  18  17
18  19  18
19  20  19
20  21  20
21  22  21
22  23  22
23  24  23
24  25  24
25  26  25
26  27  26
27  28  27
28  29  28
29  30  29
30  31  30
31  32  31
32  33  32
33  34  33
34  35  34
35  36  35
36  37  36
37  38  37
38  39  38
39  40  39
40  41  40
 VARIABLES = X Y
 ZONE N = 41, E = 40, DATAPACKING= POINT, ZONETYPE= FETRIANGLE
1240.43  1657.86
2411.87  1218.74
3595.18  866.573
4789.31  593.906
5993.23  393.305
7205.89  257.269
8425.92  176.079
9651.52  137.293
10880.9  128.305
12112.2  136.505
13343.7  149.287
14573.8  155.309
15802.2  152.649
17029.3  143.628
18255.5  130.585
19481.3  115.862
20707.1  101.798
21933.2  90.6116
23159.8  82.8375
24386.8  77.789
25614  74.7522
26841.3  73.0127
28068.8  71.8564
29296.1  70.5716
30523.3  68.7259
31750.4  66.4267
32977.4  63.8426
34204.4  61.1422
35431.4  58.4944
36658.4  56.0676
37885.4  53.9815
39112.4  52.1991
40339.5  50.6525
41566.6  49.2737
42793.7  47.995
44020.7  46.7497
45247.8  45.5114
46474.9  44.2982
47701.9  43.1307
48929  42.0293
50156  41.0011
1  2  1
2  3  2
3  4  3
4  5  4
5  6  5
6  7  6
7  8  7
8  9  8
9  10  9
10  11  10
11  12  11
12  13  12
13  14  13
14  15  14
15  16  15
16  17  16
17  18  17
18  19  18
19  20  19
20  21  20
21  22  21
22  23  22
23  24  23
24  25  24
25  26  25
26  27  26
27  28  27
28  29  28
29  30  29
30  31  30
31  32  31
32  33  32
33  34  33
34  35  34
35  36  35
36  37  36
37  38  37
38  39  38
39  40  39
40  41  40
