 VARIABLES = X Y Z
 ZONE N = 519, E = 938, DATAPACKING= POINT, ZONETYPE= FETRIANGLE
0  7.5  18
0  -7.5  18
160  0  18
3.26239  -8.31051  18
6.37946  -9.02126  18
9.4493  -9.65711  18
12.4395  -10.2123  18
15.3638  -10.6915  18
18.239  -11.0994  18
21.0861  -11.4406  18
23.934  -11.7196  18
26.8256  -11.9415  18
29.8338  -12.1121  18
33.1089  -12.2395  18
37.1115  -12.3428  18
42.8454  -12.4356  18
49.6092  -12.4829  18
60.2901  -12.4997  18
84.2089  -12.4993  18
91.9972  -12.4861  18
99.1373  -12.4441  18
105.718  -12.3612  18
111.064  -12.2478  18
116.398  -12.0819  18
121.236  -11.8772  18
125.531  -11.6419  18
129.236  -11.3846  18
131.687  -11.1661  18
133.87  -10.9171  18
135.786  -10.6428  18
137.562  -10.3329  18
139.268  -9.97996  18
140.947  -9.57717  18
142.836  -9.05987  18
144.827  -8.44781  18
146.875  -7.75104  18
148.922  -6.98676  18
150.709  -6.26095  18
152.393  -5.52064  18
153.933  -4.78686  18
155.297  -4.07884  18
156.469  -3.41217  18
157.444  -2.7978  18
158.229  -2.24199  18
158.839  -1.7469  18
159.293  -1.31143  18
159.615  -0.932075  18
159.826  -0.603627  18
159.948  -0.319639  18
159.987  -0.156848  18
160  0  18
3.26239  8.31051  18
6.37946  9.02126  18
9.4493  9.65711  18
12.4395  10.2123  18
15.3638  10.6915  18
18.239  11.0994  18
21.0861  11.4406  18
23.934  11.7196  18
26.8256  11.9415  18
29.8338  12.1121  18
33.1089  12.2395  18
37.1115  12.3428  18
42.8454  12.4356  18
49.6092  12.4829  18
60.2901  12.4997  18
84.2089  12.4993  18
91.9972  12.4861  18
99.1373  12.4441  18
105.718  12.3612  18
111.064  12.2478  18
116.398  12.0819  18
121.236  11.8772  18
125.531  11.6419  18
129.236  11.3846  18
131.687  11.1661  18
133.87  10.9171  18
135.786  10.6428  18
137.562  10.3329  18
139.268  9.97996  18
140.947  9.57717  18
142.836  9.05987  18
144.827  8.44781  18
146.875  7.75104  18
148.922  6.98676  18
150.709  6.26095  18
152.393  5.52064  18
153.933  4.78686  18
155.297  4.07884  18
156.469  3.41217  18
157.444  2.7978  18
158.229  2.24199  18
158.839  1.7469  18
159.293  1.31143  18
159.615  0.932075  18
159.826  0.603627  18
159.948  0.319639  18
159.987  0.156848  18
1.6498  0  18
4.83865  0  18
7.93229  0  18
10.962  0  18
13.9191  0  18
16.8188  0  18
19.6801  0  18
22.5279  0  18
25.3983  0  18
28.3494  0  18
31.4938  0  18
35.1398  0  18
39.9869  0  18
46.1392  0  18
54.8081  0  18
138.412  0  18
140.103  0  18
141.887  0  18
143.831  0  18
145.854  0  18
147.906  0  18
149.824  0  18
151.563  0  18
153.177  0  18
154.63  0  18
155.899  0  18
156.973  0  18
157.852  0  18
158.548  0  18
159.079  0  18
0.829604  3.85618  18
2.46069  4.05875  18
4.05501  4.24864  18
5.61343  4.42627  18
7.16041  4.59459  18
0.829604  -3.85618  18
2.46069  -4.05875  18
4.05501  -4.24864  18
5.61343  -4.42627  18
7.16041  -4.59459  18
47.8458  6.23749  18
52.1626  6.24542  18
47.8458  -6.23749  18
57.5243  6.24929  18
52.1626  -6.24542  18
57.5243  -6.24929  18
135.058  5.37692  18
136.137  5.293  18
137.095  5.20998  18
135.058  -5.37692  18
136.137  -5.293  18
137.095  -5.20998  18
159.374  0.612103  18
159.522  0.525637  18
159.641  0.448534  18
159.704  0.403095  18
159.761  0.358271  18
159.374  -0.612103  18
159.522  -0.525637  18
159.641  -0.448534  18
159.704  -0.403095  18
159.761  -0.358271  18
1.24087  5.86205  18
4.44795  6.44127  18
2.86268  2.0537  18
8.31486  7.07231  18
9.8542  7.30204  18
6.00952  2.23507  18
2.86268  -2.0537  18
9.0891  2.39647  18
6.00952  -2.23507  18
1.24087  -5.86205  18
9.0891  -2.39647  18
4.44795  -6.44127  18
8.31486  -7.07231  18
9.8542  -7.30204  18
45.3032  9.34405  18
53.4751  9.37026  18
49.9636  0  18
45.3032  -9.34405  18
53.4751  -9.37026  18
132.189  2.77852  18
138.177  7.65914  18
136.73  2.62128  18
137.271  2.59691  18
138.588  2.53182  18
136.73  -2.62128  18
137.271  -2.59691  18
138.588  -2.53182  18
138.177  -7.65914  18
158.867  1.29109  18
158.715  0.463355  18
159  0.400266  18
159.871  0.385891  18
159.908  0.321883  18
159.939  0.258906  18
159.317  0.321452  18
159.39  0.301501  18
159.432  0.289629  18
159.472  0.277826  18
158.715  -0.463355  18
159  -0.400266  18
159.939  0.0863021  18
159.317  -0.321452  18
159.39  -0.301501  18
159.432  -0.289629  18
159.472  -0.277826  18
158.867  -1.29109  18
159.871  -0.385891  18
159.908  -0.321883  18
159.939  -0.258906  18
2.25883  7.05973  18
5.42056  7.70826  18
3.46139  5.22361  18
1.85339  2.98822  18
7.35423  8.07643  18
5.81778  5.56121  18
5.03926  3.27132  18
8.5212  5.91986  18
3.8577  1.0564  18
11.1601  8.73484  18
12.6702  8.97087  18
8.13185  3.52209  18
3.8577  -1.0564  18
1.85339  -2.98822  18
6.97785  1.14379  18
6.97785  -1.14379  18
11.9197  3.79517  18
5.03926  -3.27132  18
10.0324  1.2213  18
3.46139  -5.22361  18
11.5505  1.25675  18
2.25883  -7.05973  18
10.0324  -1.2213  18
8.13185  -3.52209  18
5.81778  -5.56121  18
11.5505  -1.25675  18
5.42056  -7.70826  18
8.5212  -5.91986  18
11.9197  -3.79517  18
7.35423  -8.07643  18
11.1601  -8.73484  18
12.6702  -8.97087  18
47.4143  10.9136  18
56.8398  10.9358  18
47.4143  -10.9136  18
56.8398  -10.9358  18
128.955  7.12909  18
128.955  -4.27746  18
133.63  4.10536  18
137.154  6.50571  18
133.63  -1.36845  18
139.551  8.67658  18
134.468  0  18
139.759  6.16744  18
140.221  1.21978  18
137.154  -6.50571  18
140.221  -1.21978  18
139.759  -6.16744  18
139.551  -8.67658  18
158.127  1.44902  18
159.092  1.32503  18
157.924  0.308344  18
158.308  0.272715  18
159.071  0.575206  18
157.924  -0.308344  18
159.723  0.485853  18
159.77  0.439283  18
159.796  0.411624  18
159.985  0.148024  18
158.308  -0.272715  18
159.843  0.35691  18
159.865  0.329861  18
159.63  0.341686  18
159.985  0.105731  18
159.761  0.179135  18
158.127  -1.44902  18
159.071  -0.575206  18
159.761  0  18
159.63  -0.341686  18
159.092  -1.32503  18
159.723  -0.485853  18
159.77  -0.439283  18
159.796  -0.411624  18
159.985  -0.0634387  18
159.843  -0.35691  18
159.865  -0.329861  18
159.985  -0.148024  18
1.13827  7.3034  18
4.34992  8.03037  18
3.36196  6.77153  18
2.35983  5.56389  18
2.96282  3.6045  18
3.95951  2.64843  18
2.7624  0.511914  18
4.94207  1.63152  18
2.7624  -0.511914  18
5.91672  0.557488  18
10.243  4.90539  18
10.8954  5.58769  18
5.91672  -0.557488  18
4.94207  -1.63152  18
3.95951  -2.64843  18
2.96282  -3.6045  18
13.6659  7.1645  18
10.5201  3.0823  18
10.9831  2.48749  18
2.35983  -5.56389  18
1.13827  -7.3034  18
3.36196  -6.77153  18
12.9275  1.93063  18
12.7461  0.641597  18
14.4186  1.97694  18
4.34992  -8.03037  18
10.9831  -2.48749  18
12.7461  -0.641597  18
10.5201  -3.0823  18
12.9275  -1.93063  18
10.243  -4.90539  18
10.8954  -5.58769  18
14.4186  -1.97694  18
13.6659  -7.1645  18
125.213  3.64418  18
125.213  -8.01719  18
138.419  5.71645  18
141.284  7.71027  18
140.816  3.0033  18
138.419  -5.71645  18
140.816  -3.0033  18
141.284  -7.71027  18
157.353  2.32245  18
157.102  0.944022  18
158.518  1.38637  18
157.579  0.8459  18
159.379  1.14203  18
157.102  -0.944022  18
159.565  0.56105  18
157.579  -0.8459  18
157.353  -2.32245  18
158.518  -1.38637  18
159.906  -0.0816933  18
159.565  -0.56105  18
159.865  -0.197917  18
159.379  -1.14203  18
15.9962  9.10126  18
13.1818  2.90813  18
16.3594  6.43623  18
15.6307  1.00613  18
13.1818  -2.90813  18
15.6307  -1.00613  18
16.3594  -6.43623  18
15.9962  -9.10126  18
120.897  7.80504  18
120.897  -4.08836  18
140.518  6.96139  18
142.058  8.41073  18
143.048  8.15416  18
142.552  3.71378  18
142.315  1.43889  18
142.315  -1.43889  18
140.518  -6.96139  18
142.552  -3.71378  18
142.058  -8.41073  18
143.048  -8.15416  18
156.243  2.32714  18
157.81  2.3087  18
155.94  0.581432  18
157.638  1.24989  18
156.522  0.528212  18
155.94  -0.581432  18
156.522  -0.528212  18
156.243  -2.32714  18
157.638  -1.24989  18
157.81  -2.3087  18
15.0277  6.81608  18
14.7914  4.63872  18
15.3968  4.17835  18
18.7706  8.89943  18
18.0432  3.2875  18
14.7914  -4.63872  18
15.3968  -4.17835  18
15.0277  -6.81608  18
18.0432  -3.2875  18
18.7706  -8.89943  18
116.029  3.96875  18
142.163  7.95044  18
141.53  5.3013  18
143.937  8.32027  18
143.688  6.19169  18
144.203  1.75639  18
141.53  -5.3013  18
144.203  -1.75639  18
142.163  -7.95044  18
143.688  -6.19169  18
143.937  -8.32027  18
155.139  3.44857  18
156.818  2.3501  18
155.464  1.3085  18
155.302  0.318438  18
156.541  0.789632  18
155.302  -0.318438  18
155.464  -1.3085  18
158.213  0.81018  18
156.541  -0.789632  18
155.139  -3.44857  18
156.818  -2.3501  18
158.213  -0.81018  18
17.5774  7.65623  18
16.8492  2.1309  18
20.6799  4.5405  18
16.8492  -2.1309  18
20.3292  1.68566  18
20.3292  -1.68566  18
17.5774  -7.65623  18
20.6799  -4.5405  18
142.605  5.77533  18
145.286  7.06583  18
145.543  4.94  18
145.029  0.851302  18
145.029  -0.851302  18
142.605  -5.77533  18
145.543  -4.94  18
145.286  -7.06583  18
153.996  3.15764  18
155.825  3.46136  18
154.718  2.91315  18
154.361  0.749916  18
154.361  -0.749916  18
153.996  -3.15764  18
154.718  -2.91315  18
155.825  -3.46136  18
19.1494  6.13339  18
19.7332  6.74532  18
22.3302  8.09001  18
18.2818  1.08448  18
18.2818  -1.08448  18
23.0881  2.31954  18
19.1494  -6.13339  18
19.7332  -6.74532  18
23.0881  -2.31954  18
22.3302  -8.09001  18
144.487  6.65163  18
146.083  7.43275  18
146.21  6.39385  18
147.248  6.09942  18
144.873  3.39292  18
146.73  2.34682  18
144.873  -3.39292  18
152.407  4.58782  18
153.21  4.27557  18
146.73  -2.34682  18
144.487  -6.65163  18
154.578  3.3272  18
146.21  -6.39385  18
152.812  1.76861  18
146.083  -7.43275  18
147.248  -6.09942  18
154.749  2.1684  18
154.924  1.05303  18
152.812  -1.76861  18
154.924  -1.05303  18
152.407  -4.58782  18
154.749  -2.1684  18
153.21  -4.27557  18
154.578  -3.3272  18
24.6225  10.0067  18
21.8967  3.44438  18
24.9877  7.07987  18
21.8967  -3.44438  18
24.9877  -7.07987  18
24.6225  -10.0067  18
146.398  5.55276  18
148.09  6.57797  18
145.882  1.62896  18
148.55  2.8551  18
145.882  -1.62896  18
148.296  1.087  18
151.78  3.86083  18
148.296  -1.087  18
151.354  0.99345  18
146.398  -5.55276  18
153.413  2.51077  18
148.55  -2.8551  18
152.195  0.931469  18
153.806  2.00794  18
151.354  -0.99345  18
153.603  1.22766  18
155.519  2.28  18
152.195  -0.931469  18
148.09  -6.57797  18
153.603  -1.22766  18
151.78  -3.86083  18
153.806  -2.00794  18
153.413  -2.51077  18
155.519  -2.28  18
23.4632  5.24586  18
27.4622  9.58365  18
26.6934  3.57747  18
23.4632  -5.24586  18
26.6934  -3.57747  18
27.4622  -9.58365  18
147.481  4.14844  18
150.378  5.33116  18
147.645  2.61938  18
146.899  0.778795  18
150.198  3.45222  18
146.899  -0.778795  18
149.191  1.37754  18
152.506  4.09633  18
149.975  1.85945  18
147.645  -2.61938  18
150.597  0.523606  18
149.191  -1.37754  18
152.093  1.40865  18
147.481  -4.14844  18
150.597  -0.523606  18
149.975  -1.85945  18
150.198  -3.45222  18
152.093  -1.40865  18
150.378  -5.33116  18
152.506  -4.09633  18
469  11  439
469  439  468
298  226  297
470  416  442
299  225  169
299  100  296
470  442  443
299  101  225
471  443  84
299  296  101
300  222  100
471  84  85
300  100  299
472  388  444
300  169  227
472  444  445
300  299  169
140  139  65
472  118  417
301  167  222
472  417  388
301  300  227
301  222  300
301  227  136
302  135  223
302  136  135
302  167  301
302  223  167
142  113  140
302  301  136
474  449  446
303  298  220
474  390  418
303  226  298
143  17  141
474  446  390
303  220  56
304  168  221
474  418  118
304  228  168
144  143  113
304  297  226
475  120  119
144  113  142
304  221  297
144  142  66
305  304  226
144  66  18
305  228  304
305  230  228
306  134  135
306  170  134
477  119  120
306  135  229
145  77  78
306  231  170
307  4  2
307  2  170
307  231  4
146  145  78
307  170  231
308  231  306
308  306  229
308  229  172
308  4  231
309  305  226
309  230  305
479  452  420
479  455  452
148  29  28
148  30  29
480  453  476
310  309  103
310  102  230
310  230  309
311  103  309
149  30  148
312  172  236
312  4  308
312  5  4
312  308  172
312  236  5
482  121  478
482  122  121
313  232  235
483  480  422
483  453  480
483  422  456
483  457  425
314  235  102
483  456  457
314  310  103
314  102  310
315  313  238
315  232  313
485  482  453
315  171  232
485  122  482
315  233  171
485  453  483
485  483  425
316  238  313
485  425  122
486  396  456
486  424  394
316  313  235
486  456  424
316  235  314
486  394  363
316  314  103
486  363  396
317  237  233
487  484  121
317  315  238
487  121  122
317  174  237
317  233  315
488  37  36
488  36  455
318  240  174
318  241  240
489  458  487
318  317  238
489  487  122
318  174  317
489  122  426
319  316  103
320  8  241
320  241  318
491  489  426
320  318  238
321  246  247
491  458  489
491  461  427
321  74  246
491  459  461
491  426  459
492  458  491
492  491  427
322  26  25
492  490  458
322  27  26
322  321  247
493  400  370
493  461  400
322  247  27
493  428  461
323  184  147
493  403  428
323  147  249
493  370  403
323  249  181
494  408  432
323  253  184
323  181  253
494  465  408
324  251  81
494  432  466
494  435  465
495  61  109
495  466  464
495  60  61
495  464  60
325  184  253
325  254  184
496  109  108
496  108  107
496  435  494
496  466  495
496  494  466
326  150  187
496  495  109
326  255  150
496  107  435
326  257  188
326  188  255
326  187  257
497  413  467
497  468  439
497  439  413
497  467  438
327  187  256
498  108  109
327  257  187
161  129  1
498  438  107
498  107  108
328  33  258
498  468  497
498  497  438
499  498  109
499  13  12
499  12  469
499  109  13
499  468  498
499  469  468
500  416  470
329  90  91
500  443  471
500  445  416
500  470  443
501  86  447
330  261  125
501  447  476
501  85  86
501  471  85
331  92  189
502  500  473
502  473  475
165  164  54
331  189  263
502  445  500
503  118  472
503  475  119
503  472  445
332  261  330
503  502  475
19  18  66
503  445  502
19  66  67
504  473  500
333  260  94
333  95  265
333  94  95
504  500  471
504  471  501
504  501  476
505  118  503
334  125  264
505  449  474
20  67  68
505  119  477
335  152  151
505  474  118
335  153  152
505  503  119
335  260  333
506  475  473
335  189  260
20  19  67
506  120  475
335  151  189
335  265  153
335  333  265
507  422  480
336  334  264
507  448  422
21  68  69
507  447  448
170  2  134
507  476  447
507  480  476
21  20  68
337  43  42
508  504  478
508  506  473
508  473  504
509  477  481
338  206  44
338  276  206
22  69  70
509  505  477
339  277  201
339  201  283
509  449  505
22  21  69
510  120  506
510  506  508
339  205  277
510  508  478
339  278  205
340  279  206
510  478  121
340  206  156
340  158  280
340  156  157
23  22  70
511  481  477
340  157  158
23  70  71
511  477  120
341  339  283
512  482  478
341  278  339
512  476  453
341  283  285
174  6  173
512  453  482
341  285  160
512  478  504
341  160  278
512  504  476
342  340  280
175  112  111
513  509  481
342  280  47
175  139  112
513  449  509
342  279  340
513  455  479
342  47  46
175  111  64
513  479  420
342  46  279
513  420  449
176  140  65
513  488  455
176  142  140
514  120  510
343  56  57
514  510  121
177  113  143
514  511  120
343  303  56
177  139  140
177  112  139
514  121  484
177  140  113
344  311  309
177  143  141
515  481  511
344  309  226
177  141  112
515  511  514
178  111  112
515  514  484
516  481  515
178  16  111
516  488  513
178  112  141
516  515  484
516  513  481
179  143  144
346  103  311
179  17  143
517  490  516
517  484  487
517  487  458
347  238  316
517  458  490
517  516  484
518  516  490
347  316  319
518  38  37
518  37  488
518  490  460
348  103  346
518  488  516
348  346  104
518  460  38
348  319  103
519  490  492
519  460  490
181  79  80
519  492  427
519  462  460
519  427  462
182  146  147
182  145  146
350  9  8
183  114  182
350  8  320
183  182  147
184  114  183
351  74  321
351  72  73
184  183  147
351  73  74
352  25  24
185  182  114
352  321  322
185  149  148
352  322  25
185  150  149
352  351  321
353  251  324
186  185  114
186  150  185
353  253  251
354  324  81
187  186  114
187  150  186
354  81  82
355  354  82
188  32  31
189  92  93
357  254  325
190  128  127
357  116  254
357  117  116
357  325  356
358  116  117
358  256  116
358  327  256
191  128  190
359  258  257
359  328  258
192  95  96
360  327  358
193  192  96
361  34  33
193  96  97
361  33  328
362  34  361
195  128  191
364  259  329
364  92  331
364  329  91
364  331  259
196  195  151
364  91  92
366  329  259
196  128  195
366  330  363
366  332  330
367  125  124
367  124  365
197  196  151
367  330  125
197  128  196
198  128  197
369  368  124
369  124  125
369  125  334
199  127  128
200  199  128
371  275  337
371  334  336
371  370  334
372  275  338
372  337  275
372  44  43
372  338  44
372  43  337
373  303  343
373  343  345
202  200  128
374  373  345
374  226  303
374  311  344
374  303  373
374  344  226
203  156  202
375  374  345
375  346  311
203  202  128
204  156  203
375  311  374
204  203  128
376  57  58
205  204  128
377  375  345
378  347  319
206  45  44
378  238  347
378  320  238
207  48  47
379  349  378
379  319  348
379  378  319
380  349  350
380  378  349
380  320  378
380  350  320
208  49  48
208  48  207
381  349  379
382  10  9
383  24  23
383  72  351
383  352  24
383  71  72
383  23  71
383  351  352
384  354  355
212  131  130
384  324  354
385  353  324
213  99  129
385  253  353
385  325  253
213  163  99
385  356  325
213  129  130
386  355  82
214  211  53
386  82  83
214  53  54
387  355  386
214  54  164
215  162  211
215  212  162
215  214  164
215  211  214
215  131  212
215  132  131
215  133  132
388  357  356
216  133  166
388  117  357
216  131  132
216  132  133
389  257  327
217  133  215
389  328  359
217  215  164
389  327  360
217  164  165
389  359  257
390  360  358
390  358  117
219  54  55
219  165  54
391  361  328
391  362  361
220  219  55
220  55  56
221  166  133
221  133  217
393  35  34
393  362  392
393  34  362
223  135  134
394  88  89
223  99  167
223  134  99
395  366  363
224  168  101
395  329  366
395  90  329
224  221  168
224  166  221
225  101  171
397  365  124
398  365  396
398  363  330
398  396  363
227  138  137
398  367  365
398  330  367
399  397  124
227  169  138
399  124  368
227  137  136
228  101  168
399  123  397
229  135  136
230  102  228
401  263  190
401  366  259
401  190  262
401  262  261
401  259  331
401  331  263
401  261  332
401  332  366
232  101  228
402  400  368
232  171  101
402  370  400
232  228  102
402  368  369
402  369  334
233  169  225
402  334  370
403  41  40
233  225  171
233  138  169
404  337  42
234  137  138
404  370  371
404  371  337
234  172  229
405  371  336
234  229  136
405  338  275
234  136  137
405  276  338
405  199  276
405  275  371
235  232  102
405  336  264
405  264  269
405  269  199
406  57  376
406  343  57
406  345  343
236  172  234
407  375  377
237  234  138
407  104  346
237  174  173
407  346  375
237  138  233
237  173  234
409  379  348
409  348  104
409  381  379
239  236  234
410  377  408
239  6  5
239  173  6
239  234  173
239  5  236
240  7  6
411  410  106
240  6  174
411  105  410
241  8  7
412  350  349
241  7  240
412  9  350
242  139  175
412  382  9
242  175  64
242  65  139
242  64  65
243  176  65
243  66  142
413  381  411
243  142  176
243  65  66
244  17  16
244  141  17
414  384  355
244  16  178
414  324  384
244  178  141
414  387  356
245  18  17
414  385  324
245  144  18
414  356  385
245  17  179
414  355  387
245  179  144
246  76  180
246  74  75
246  75  76
247  28  27
247  246  180
248  77  145
417  117  388
248  180  76
418  417  118
418  117  417
248  76  77
418  390  117
249  147  146
249  146  78
249  79  181
419  328  389
249  78  79
419  391  328
419  360  392
250  148  28
419  362  391
250  247  180
419  392  362
250  28  247
419  389  360
251  181  80
251  80  81
252  180  248
252  248  145
252  145  182
252  148  250
109  14  13
252  182  185
252  185  148
252  250  180
109  61  62
110  15  14
253  181  251
423  363  394
110  109  62
423  394  89
110  62  63
423  395  363
254  115  114
423  90  395
254  114  184
110  14  109
423  89  90
111  110  63
111  16  15
254  116  115
255  31  30
255  30  149
111  63  64
255  149  150
111  15  110
425  397  123
255  188  31
256  114  115
425  123  122
256  187  114
426  123  399
256  115  116
426  122  123
258  33  32
258  32  188
258  188  257
429  42  41
429  41  403
429  403  370
429  404  42
429  370  404
430  406  376
430  377  345
430  408  377
260  189  93
430  345  406
260  93  94
431  430  376
431  376  58
431  408  430
261  126  125
262  127  126
262  190  127
432  58  59
262  126  261
432  431  58
263  151  195
432  408  431
433  407  377
263  195  191
263  191  190
433  377  410
433  104  407
263  189  151
433  410  105
434  381  409
434  105  411
264  125  126
434  411  381
434  409  104
434  104  433
434  433  105
265  154  153
265  155  154
265  95  192
435  107  106
266  265  192
436  382  412
436  381  413
266  155  265
436  349  381
436  412  349
437  10  382
267  266  192
437  382  436
437  436  413
267  155  266
268  193  97
268  194  193
438  106  107
268  97  98
268  98  51
269  126  127
439  11  10
269  264  126
269  127  199
439  10  437
439  437  413
440  83  415
440  415  416
270  267  192
440  416  387
270  155  267
440  387  386
440  386  83
271  155  270
441  415  83
271  192  193
271  193  194
441  83  84
271  270  192
271  201  155
272  151  152
272  152  153
442  416  415
272  153  154
442  415  441
272  154  155
272  197  151
443  442  441
272  198  197
443  441  84
273  271  194
273  201  271
273  194  268
273  268  51
444  387  416
274  198  272
444  356  387
444  388  356
274  272  155
274  155  201
445  444  416
276  156  206
446  360  390
276  200  202
446  392  360
276  202  156
446  420  392
276  199  200
277  205  128
277  274  201
447  86  87
277  198  274
277  128  198
448  447  87
278  204  205
448  87  88
278  157  156
278  158  157
449  420  446
278  156  204
278  159  158
278  160  159
279  46  45
450  421  35
450  420  421
279  45  206
450  35  393
450  393  392
450  392  420
451  422  448
451  448  88
451  394  424
280  207  47
451  88  394
451  424  422
280  158  159
280  159  160
281  280  160
281  207  280
452  421  420
282  207  281
282  281  160
454  35  421
454  36  35
283  273  51
454  421  452
283  51  3
455  36  454
283  201  273
455  454  452
284  282  160
284  207  282
456  422  424
285  283  209
285  209  208
457  456  396
457  397  425
285  284  160
457  396  365
285  207  284
285  208  207
457  365  397
286  209  283
286  208  209
286  50  49
286  3  50
286  49  208
286  283  3
287  52  210
287  210  161
459  368  400
287  1  52
459  399  368
287  161  1
459  426  399
288  53  211
288  211  162
288  52  53
289  210  52
460  39  38
289  162  212
289  288  162
289  52  288
290  161  210
290  210  289
461  459  400
290  289  212
290  130  129
461  428  427
290  129  161
290  212  130
462  40  39
291  130  131
462  39  460
291  213  130
291  163  213
463  40  462
463  427  428
292  131  216
463  428  403
292  218  163
463  462  427
292  163  291
463  403  40
292  291  131
464  59  60
293  163  218
464  432  59
293  99  163
465  410  408
293  218  100
294  218  292
134  2  1
465  106  410
465  435  106
294  292  216
134  129  99
466  432  464
294  100  218
294  216  166
295  100  222
134  1  129
295  222  167
295  293  100
295  99  293
295  167  99
467  106  438
296  166  224
467  411  106
296  100  294
467  413  411
296  294  166
296  224  101
297  217  165
297  221  217
298  219  220
469  12  11
298  165  219
298  297  165
 VARIABLES = X Y Z
 ZONE N = 218, E = 408, DATAPACKING= POINT, ZONETYPE= FETRIANGLE
0  0  8
0  0  8
0  -7.5  18
0  -5.08154  8
0  -6.17622  8.01004
0  -6.5478  8.04677
0  -6.83897  8.11798
0  -7.05952  8.22555
0  -7.21139  8.36018
0  -7.32954  8.54769
0  -7.41804  8.80721
0  -7.47527  9.16769
0  -7.49952  9.76937
0  -7.5  13.2041
0  7.5  18
0  5.08154  8
0  6.17622  8.01004
0  6.5478  8.04677
0  6.83897  8.11798
0  7.05952  8.22555
0  7.21139  8.36018
0  7.32954  8.54769
0  7.41804  8.80721
0  7.47527  9.16769
0  7.49952  9.76937
0  7.5  13.2041
0  0  11.6213
0  0  15.2157
0  3.73783  9.17194
0  3.74475  9.36573
0  3.74813  9.54624
0  3.74954  9.71379
0  3.74995  9.86115
0  3.75  10.0178
0  3.75  10.7154
0  3.75  12.4394
0  -3.73783  9.17194
0  3.75  14.1419
0  -3.74475  9.36573
0  -3.74813  9.54624
0  -3.74954  9.71379
0  -3.74995  9.86115
0  -3.75  10.0178
0  -3.75  10.7154
0  3.75  16.4828
0  -3.75  12.4394
0  -3.75  14.1419
0  -3.75  16.4828
0  5.09452  8.10269
0  5.34755  8.27868
0  5.42171  8.38177
0  5.47602  8.49225
0  5.5161  8.6058
0  5.54446  8.7137
0  5.56859  8.83616
0  1.69817  8.10269
0  5.625  11.1768
0  1.875  10.6037
0  1.875  10.6878
0  1.875  10.7607
0  1.875  10.8375
0  5.625  14.6581
0  -5.09452  8.10269
0  -1.875  10.6037
0  -5.34755  8.27868
0  -1.875  10.6878
0  -1.875  10.7607
0  -5.42171  8.38177
0  -1.875  10.8375
0  -5.47602  8.49225
0  -5.5161  8.6058
0  -5.54446  8.7137
0  -5.56859  8.83616
0  5.625  17.2066
0  1.875  14.6581
0  1.875  15.8215
0  -5.625  11.1768
0  -1.875  14.6581
0  -1.875  15.8215
0  -1.875  17.2066
0  -5.625  14.6581
0  -5.625  17.2066
0  2.54012  8
0  5.26232  8.00388
0  3.7588  8.00388
0  5.23168  8.17631
0  6.54878  9.27911
0  4.60756  8.65148
0  4.62324  8.72898
0  4.63548  8.80196
0  5.625  9.97523
0  2.73378  8.47231
0  -1.52407  8
0  6.5625  12.2433
0  1.86459  9.02281
0  4.6875  11.8351
0  -2.25528  8.00388
0  -0.911258  8.47231
0  0  9.02281
0  6.5625  13.897
0  2.8125  11.6779
0  -5.26232  8.00388
0  -4.55629  8.47231
0  -5.23168  8.17631
0  6.5625  16.1448
0  2.8125  13.4941
0  -4.60756  8.65148
0  -4.62324  8.72898
0  -4.63548  8.80196
0  4.6875  15.5121
0  0.9375  13.1075
0  2.8125  14.9313
0  -2.8125  11.6779
0  -6.54878  9.27911
0  -5.625  9.97523
0  -0.9375  13.1075
0  -4.6875  11.8351
0  -2.8125  13.4941
0  0  16.4828
0  -6.5625  12.2433
0  -0.9375  16.1448
0  -2.8125  14.9313
0  -6.5625  13.897
0  -4.6875  15.5121
0  -6.5625  16.1448
0  4.42093  8.03057
0  4.30467  8.1362
0  6.05495  8.98171
0  2.81332  8.03057
0  3.39635  8.10269
0  5.61752  9.37622
0  5.14868  9.35595
0  7.03125  11.0628
0  2.21387  8.24283
0  3.24346  8.78932
0  -0.348073  8
0  1.81462  8.42221
0  -0.401902  8.03057
0  0.442774  8.24283
0  0.907309  8.42221
0  -1.69817  8.10269
0  -0.462241  8.72447
0  -3.61712  8.03057
0  7.03125  14.5255
0  -3.39635  8.10269
0  -2.31676  8.78932
0  -1.40487  9.43502
0  -2.32273  8.87319
0  1.875  12.4158
0  6.09375  15.3623
0  7.03125  17.0194
0  4.21875  14.7934
0  5.15625  16.3119
0  -5.14868  9.35595
0  1.40625  13.845
0  -6.05495  8.98171
0  -5.61752  9.37622
0  3.28125  15.6651
0  -1.875  12.4158
0  0.46875  14.0881
0  -0.46875  14.0881
0  -1.40625  13.845
0  -7.03125  11.0628
0  -4.21875  14.7934
0  -3.28125  15.6651
0  -7.03125  14.5255
0  -6.09375  15.3623
0  -5.15625  16.3119
0  -7.03125  17.0194
0  2.83317  8
0  4.05504  8.03787
0  4.86619  8.23832
0  5.77663  8.71854
0  4.49206  8.33312
0  4.02469  8.3009
0  2.54726  8.10269
0  3.09942  8.24283
0  3.37435  8.34546
0  0.584254  8.01321
0  1.76514  8.22626
0  1.32386  8.22626
0  0  8.10269
0  1.3849  8.69295
0  -0.651412  8.16284
0  0  8.44686
0  0.461633  8.69295
0  -2.00951  8.03057
0  -1.32832  8.24283
0  -2.81332  8.03057
0  -2.02461  8.34546
0  -1.16229  8.90319
0  -2.92443  8.34546
0  -4.41286  8.08329
0  -3.98496  8.24283
0  7.26563  16.0626
0  -3.04037  9.27421
0  -5.77663  8.71854
0  -7.26563  16.0626
0  2.86159  8.00172
0  4.40712  8.2202
0  3.71394  8.18441
0  4.3232  8.4574
0  0.941279  8.07562
0  0.524202  8.07959
0  -0.334386  8.28167
0  -0.781412  8.29114
0  -1.86442  8.20018
0  -2.46994  8.13047
0  -2.3031  8.20018
0  -1.60761  8.59185
0  -2.8995  8.13047
0  -2.17546  8.54417
0  -3.00701  8.74523
0  -3.34829  8.70303
0  -4.52184  8.22486
0  -4.30801  8.41801
0  -4.88409  8.16183
0  -2.69973  8.22082
150  62  144
151  74  105
151  15  74
152  112  38
152  38  62
152  62  110
153  45  110
153  150  105
153  74  45
153  110  150
153  105  74
154  42  115
154  37  39
154  39  40
154  73  109
154  109  37
154  40  41
154  41  42
155  111  106
155  106  75
156  11  10
156  114  11
157  154  115
157  156  73
157  114  156
157  73  154
157  115  114
158  76  112
158  110  45
158  45  76
158  152  110
158  112  152
159  113  69
159  116  118
159  118  46
159  69  27
159  46  113
159  27  116
160  155  75
160  111  155
160  75  28
161  116  111
161  28  78
161  111  160
161  160  28
162  118  116
162  78  118
162  116  161
162  161  78
163  115  77
163  14  13
163  120  14
163  77  120
163  13  115
164  81  47
164  47  122
164  124  81
165  79  48
165  48  124
165  164  122
165  124  164
165  122  79
166  123  81
166  14  123
167  81  124
167  166  81
168  48  82
168  124  48
168  82  125
168  167  124
168  125  167
169  82  3
169  125  82
170  136  83
170  83  85
171  85  126
171  126  127
171  130  129
171  127  130
172  50  51
172  86  50
172  49  86
172  127  49
173  51  21
173  21  22
173  52  51
173  53  52
173  22  128
173  128  55
173  55  54
173  54  53
174  52  88
174  51  52
174  172  51
176  56  129
176  129  130
176  134  56
177  92  134
177  134  176
177  176  130
178  135  92
178  92  177
179  136  170
179  129  56
179  138  136
180  134  137
180  56  134
181  56  180
181  180  137
181  137  140
181  140  139
183  140  137
183  137  95
184  138  182
184  141  138
185  142  98
185  139  140
186  183  95
186  142  185
186  185  140
186  140  183
186  95  99
186  99  142
187  136  138
187  97  136
187  138  141
188  141  184
189  97  187
189  145  143
189  143  97
191  99  147
191  98  142
191  147  148
191  142  99
193  143  145
193  63  102
193  102  143
194  193  145
195  105  150
195  150  144
195  15  151
195  151  105
195  26  15
195  144  26
196  64  43
196  148  147
196  39  37
196  40  39
196  41  40
196  147  64