 VARIABLES = X Y Z
 ZONE N = 514, E = 930, DATAPACKING= POINT, ZONETYPE= FETRIANGLE
0  7.5  18
0  -7.5  18
160  0  18
3.25262  -8.30818  18
6.36078  -9.01719  18
9.42194  -9.65173  18
12.4038  -10.2061  18
15.3201  -10.6849  18
18.1873  -11.0927  18
21.0262  -11.4341  18
23.8652  -11.7136  18
26.7464  -11.9362  18
29.741  -12.1076  18
32.9946  -12.2359  18
36.9435  -12.3392  18
42.6527  -12.4334  18
49.3295  -12.4818  18
59.8005  -12.4996  18
89.4505  -12.4931  18
97.4675  -12.4575  18
104.479  -12.381  18
110.642  -12.2585  18
115.979  -12.097  18
120.842  -11.896  18
125.174  -11.6637  18
128.92  -11.4093  18
131.453  -11.1895  18
133.667  -10.9429  18
135.596  -10.6726  18
137.377  -10.3678  18
139.083  -10.0209  18
140.758  -9.62525  18
142.628  -9.11976  18
144.605  -8.51942  18
146.643  -7.83344  18
148.687  -7.07809  18
150.478  -6.35794  18
152.173  -5.62062  18
153.73  -4.88703  18
155.116  -4.17661  18
156.312  -3.50537  18
157.313  -2.88484  18
158.122  -2.32188  18
158.755  -1.81916  18
159.231  -1.37602  18
159.571  -0.989314  18
159.798  -0.654114  18
159.933  -0.364206  18
159.983  -0.178306  18
160  0  18
3.25262  8.30818  18
6.36078  9.01719  18
9.42194  9.65173  18
12.4038  10.2061  18
15.3201  10.6849  18
18.1873  11.0927  18
21.0262  11.4341  18
23.8652  11.7136  18
26.7464  11.9362  18
29.741  12.1076  18
32.9946  12.2359  18
36.9435  12.3392  18
42.6527  12.4334  18
49.3295  12.4818  18
59.8005  12.4996  18
89.4505  12.4931  18
97.4675  12.4575  18
104.479  12.381  18
110.642  12.2585  18
115.979  12.097  18
120.842  11.896  18
125.174  11.6637  18
128.92  11.4093  18
131.453  11.1895  18
133.667  10.9429  18
135.596  10.6726  18
137.377  10.3678  18
139.083  10.0209  18
140.758  9.62525  18
142.628  9.11976  18
144.605  8.51942  18
146.643  7.83344  18
148.687  7.07809  18
150.478  6.35794  18
152.173  5.62062  18
153.73  4.88703  18
155.116  4.17661  18
156.312  3.50537  18
157.313  2.88484  18
158.122  2.32188  18
158.755  1.81916  18
159.231  1.37602  18
159.571  0.989314  18
159.798  0.654114  18
159.933  0.364206  18
159.983  0.178306  18
1.6448  0  18
4.82432  0  18
7.90916  0  18
10.9304  0  18
13.8794  0  18
16.771  0  18
19.6241  0  18
22.4634  0  18
25.3241  0  18
28.2633  0  18
31.39  0  18
34.9982  0  18
39.8088  0  18
45.908  0  18
54.4219  0  18
138.227  0  18
139.916  0  18
141.689  0  18
143.615  0  18
145.626  0  18
147.671  0  18
149.591  0  18
151.337  0  18
152.965  0  18
154.438  0  18
155.73  0  18
156.828  0  18
157.733  0  18
158.453  0  18
159.006  0  18
0.827075  3.85586  18
2.45328  4.05785  18
4.04293  4.24723  18
5.5969  4.42443  18
7.13948  4.59237  18
0.827075  -3.85586  18
2.45328  -4.05785  18
4.04293  -4.24723  18
5.5969  -4.42443  18
7.13948  -4.59237  18
47.5916  6.23682  18
51.8297  6.245  18
47.5916  -6.23682  18
57.0856  6.24914  18
51.8297  -6.245  18
57.0856  -6.24914  18
134.852  5.39186  18
135.944  5.30871  18
136.908  5.22681  18
134.852  -5.39186  18
135.944  -5.30871  18
136.908  -5.22681  18
159.316  0.643514  18
159.473  0.555334  18
159.599  0.476704  18
159.674  0.424809  18
159.742  0.373694  18
159.316  -0.643514  18
159.473  -0.555334  18
159.599  -0.476704  18
159.674  -0.424809  18
159.742  -0.373694  18
1.2371  5.86134  18
4.43473  6.43898  18
2.85408  2.05318  18
8.29066  7.0686  18
9.82559  7.29789  18
5.99183  2.23409  18
2.85408  -2.05318  18
9.06267  2.39516  18
5.99183  -2.23409  18
1.2371  -5.86134  18
9.06267  -2.39516  18
4.43473  -6.43898  18
8.29066  -7.0686  18
9.82559  -7.29789  18
45.0826  9.34274  18
53.1156  9.36973  18
49.6704  0  18
45.0826  -9.34274  18
53.1156  -9.36973  18
131.933  2.78526  18
137.991  7.68704  18
136.535  2.62972  18
137.083  2.60554  18
138.402  2.54152  18
136.535  -2.62972  18
137.083  -2.60554  18
138.402  -2.54152  18
137.991  -7.68704  18
158.786  1.34465  18
158.628  0.481686  18
158.924  0.417638  18
159.852  0.414414  18
159.897  0.341407  18
159.934  0.269715  18
159.257  0.337428  18
159.333  0.317093  18
159.383  0.303536  18
159.43  0.290067  18
158.628  -0.481686  18
158.924  -0.417638  18
159.934  0.0899051  18
159.257  -0.337428  18
159.333  -0.317093  18
159.383  -0.303536  18
159.43  -0.290067  18
158.786  -1.34465  18
159.852  -0.414414  18
159.897  -0.341407  18
159.934  -0.269715  18
2.25202  7.05827  18
5.40458  7.70513  18
3.45104  5.22208  18
1.84778  2.9877  18
7.33274  8.07246  18
5.80063  5.55883  18
5.02433  3.27005  18
8.49635  5.91671  18
3.84619  1.05606  18
11.1279  8.72965  18
12.6336  8.96534  18
8.10812  3.52025  18
3.84619  -1.05606  18
1.84778  -2.9877  18
6.9574  1.14324  18
6.9574  -1.14324  18
11.8853  3.79286  18
5.02433  -3.27005  18
10.0034  1.22061  18
3.45104  -5.22208  18
11.5171  1.256  18
2.25202  -7.05827  18
10.0034  -1.22061  18
8.10812  -3.52025  18
5.80063  -5.55883  18
11.5171  -1.256  18
5.40458  -7.70513  18
8.49635  -5.91671  18
11.8853  -3.79286  18
7.33274  -8.07246  18
11.1279  -8.72965  18
12.6336  -8.96534  18
47.1661  10.9124  18
56.4141  10.9355  18
47.1661  -10.9124  18
56.4141  -10.9355  18
128.654  7.14348  18
128.654  -4.28609  18
136.965  6.5271  18
133.399  -1.37201  18
134.245  0  18
139.364  8.71369  18
139.572  6.19449  18
140.029  1.22554  18
136.965  -6.5271  18
140.029  -1.22554  18
139.572  -6.19449  18
139.364  -8.71369  18
158.018  1.49922  18
159.02  1.38455  18
157.808  0.318597  18
158.205  0.282524  18
158.999  0.600741  18
157.808  -0.318597  18
159.691  0.516126  18
159.741  0.468652  18
159.772  0.437068  18
158.205  -0.282524  18
159.983  0.15409  18
159.828  0.374668  18
159.854  0.34386  18
159.601  0.356579  18
159.983  0.110064  18
159.742  0.186847  18
158.018  -1.49922  18
158.999  -0.600741  18
159.742  0  18
159.601  -0.356579  18
159.02  -1.38455  18
159.691  -0.516126  18
159.741  -0.468652  18
159.772  -0.437068  18
159.983  -0.0660384  18
159.828  -0.374668  18
159.854  -0.34386  18
159.983  -0.15409  18
1.13481  7.30259  18
4.33699  8.02757  18
3.3519  6.76959  18
2.35272  5.5627  18
2.95393  3.60357  18
3.9477  2.64757  18
2.75409  0.511788  18
4.92742  1.6309  18
2.75409  -0.511788  18
5.89928  0.557248  18
10.2133  4.90255  18
10.8638  5.58439  18
5.89928  -0.557248  18
4.92742  -1.6309  18
3.9477  -2.64757  18
13.6267  7.16003  18
2.95393  -3.60357  18
10.4896  3.0805  18
10.9513  2.48602  18
2.35272  -5.5627  18
1.13481  -7.30259  18
3.3519  -6.76959  18
12.8904  1.92944  18
12.7095  0.641202  18
14.3772  1.97569  18
4.33699  -8.02757  18
10.9513  -2.48602  18
12.7095  -0.641202  18
10.4896  -3.0805  18
12.8904  -1.92944  18
10.2133  -4.90255  18
10.8638  -5.58439  18
14.3772  -1.97569  18
13.6267  -7.16003  18
124.864  3.65072  18
124.864  -8.03158  18
138.233  5.73797  18
141.087  7.75221  18
140.623  3.01849  18
138.233  -5.73797  18
140.623  -3.01849  18
141.087  -7.75221  18
157.22  2.39314  18
156.963  0.971648  18
158.423  1.43856  18
157.452  0.872581  18
159.322  1.20074  18
156.963  -0.971648  18
159.521  0.592282  18
157.452  -0.872581  18
157.22  -2.39314  18
158.423  -1.43856  18
159.898  -0.0851329  18
159.521  -0.592282  18
159.854  -0.206316  18
159.322  -1.20074  18
15.9505  9.09555  18
13.1438  2.90632  18
16.3127  6.43219  18
15.586  1.0055  18
13.1438  -2.90632  18
15.586  -1.0055  18
16.3127  -6.43219  18
15.9505  -9.09555  18
120.51  7.81697  18
140.325  6.99543  18
141.855  8.46129  18
142.837  8.21015  18
142.345  3.73767  18
142.11  1.44785  18
142.11  -1.44785  18
140.325  -6.99543  18
142.345  -3.73767  18
141.855  -8.46129  18
142.837  -8.21015  18
156.082  2.38841  18
157.69  2.38439  18
155.774  0.596163  18
157.514  1.28948  18
156.368  0.542607  18
155.774  -0.596163  18
156.368  -0.542607  18
156.082  -2.38841  18
157.514  -1.28948  18
157.69  -2.38439  18
14.9846  6.81178  18
14.749  4.6358  18
15.3527  4.17572  18
18.717  8.894  18
17.9918  3.28548  18
14.749  -4.6358  18
15.3527  -4.17572  18
14.9846  -6.81178  18
17.9918  -3.28548  18
18.717  -8.894  18
141.959  7.99919  18
143.72  8.38388  18
141.33  5.33118  18
143.473  6.23758  18
143.984  1.77023  18
141.33  -5.33118  18
143.984  -1.77023  18
141.959  -7.99919  18
143.473  -6.23758  18
143.72  -8.38388  18
154.957  3.52907  18
156.671  2.41641  18
155.287  1.34015  18
155.123  0.326003  18
156.388  0.811067  18
155.123  -0.326003  18
155.287  -1.34015  18
158.107  0.838566  18
156.388  -0.811067  18
154.957  -3.52907  18
156.671  -2.41641  18
158.107  -0.838566  18
17.5271  7.65147  18
16.8011  2.12957  18
20.6207  4.53785  18
16.8011  -2.12957  18
20.2709  1.68466  18
20.2709  -1.68466  18
17.5271  -7.65147  18
20.6207  -4.53785  18
142.397  5.81283  18
145.061  7.12889  18
145.317  4.98537  18
144.806  0.858682  18
144.806  -0.858682  18
142.397  -5.81283  18
145.317  -4.98537  18
145.061  -7.12889  18
153.797  3.22332  18
155.655  3.54852  18
154.528  2.97855  18
155.692  1.90054  18
154.167  0.766116  18
154.167  -0.766116  18
153.797  -3.22332  18
154.528  -2.97855  18
155.692  -1.90054  18
155.655  -3.54852  18
19.0945  6.12967  18
19.6767  6.74129  18
22.266  8.08555  18
18.2296  1.08381  18
18.2296  -1.08381  18
23.021  2.31828  18
19.0945  -6.12967  18
19.6767  -6.74129  18
23.021  -2.31828  18
22.266  -8.08555  18
144.267  6.70581  18
145.854  7.50522  18
145.981  6.45707  18
147.016  6.16647  18
144.651  3.42181  18
146.5  2.3713  18
144.651  -3.42181  18
152.191  4.66989  18
153  4.35846  18
146.5  -2.3713  18
144.267  -6.70581  18
154.387  3.40043  18
145.981  -6.45707  18
152.599  1.80154  18
145.854  -7.50522  18
147.016  -6.16647  18
154.56  2.21695  18
154.738  1.07708  18
152.599  -1.80154  18
154.738  -1.07708  18
152.191  -4.66989  18
154.56  -2.21695  18
153  -4.35846  18
154.387  -3.40043  18
24.5505  10.0016  18
21.8335  3.44244  18
24.9143  7.07637  18
21.8335  -3.44244  18
24.9143  -7.07637  18
24.5505  -10.0016  18
146.169  5.60861  18
147.856  6.65686  18
145.654  1.64446  18
148.316  2.89084  18
145.654  -1.64446  18
148.063  1.10026  18
151.557  3.92633  18
148.063  -1.10026  18
151.13  1.0096  18
146.169  -5.60861  18
153.207  2.56014  18
148.316  -2.89084  18
151.975  0.947905  18
153.605  2.04884  18
151.13  -1.0096  18
153.398  1.25225  18
151.975  -0.947905  18
147.856  -6.65686  18
153.398  -1.25225  18
151.557  -3.92633  18
153.605  -2.04884  18
153.207  -2.56014  18
23.3948  5.24307  18
27.3787  9.57948  18
26.6135  3.57585  18
23.3948  -5.24307  18
26.6135  -3.57585  18
27.3787  -9.57948  18
147.249  4.19504  18
150.148  5.41052  18
147.413  2.64933  18
146.667  0.78706  18
149.968  3.50252  18
146.667  -0.78706  18
148.958  1.39593  18
152.289  4.17056  18
149.745  1.88597  18
147.413  -2.64933  18
150.368  0.531567  18
148.958  -1.39593  18
151.874  1.43314  18
147.249  -4.19504  18
150.368  -0.531567  18
149.745  -1.88597  18
149.968  -3.50252  18
151.874  -1.43314  18
150.148  -5.41052  18
152.289  -4.17056  18
299  218  55
299  224  295
471  443  385
299  295  218
300  134  133
138  137  64
300  133  221
471  385  413
300  298  134
471  446  443
300  221  165
471  413  116
300  165  298
301  166  219
301  226  166
472  118  117
301  219  294
140  111  138
301  294  224
302  301  224
302  228  226
302  226  301
303  168  132
141  17  139
303  229  168
474  117  118
303  132  133
303  133  227
142  140  65
304  2  168
304  4  2
142  111  140
304  168  229
142  141  111
304  229  4
142  65  18
305  303  227
305  229  303
305  227  170
305  4  229
476  452  449
143  75  76
476  449  415
477  450  473
144  143  76
306  302  224
306  228  302
307  306  101
307  228  306
307  100  228
308  101  306
309  5  4
146  28  27
309  234  5
146  29  28
479  119  475
309  4  305
479  120  119
309  305  170
309  170  234
480  450  477
480  477  417
310  230  233
147  29  146
480  454  421
480  453  454
480  417  453
311  100  307
311  307  101
311  233  100
312  169  230
482  450  480
312  310  236
482  120  479
312  230  310
482  479  450
482  480  421
312  231  169
482  421  120
483  119  120
313  236  310
313  233  311
483  481  119
313  310  233
313  311  101
484  36  35
314  235  231
484  35  452
485  483  120
485  455  483
314  172  235
314  312  236
314  231  312
315  238  172
485  120  422
315  239  238
315  172  314
315  314  236
487  485  422
316  313  101
487  458  423
317  8  239
487  422  456
487  455  485
317  239  315
487  456  458
317  315  236
488  486  455
488  455  487
488  487  423
318  72  244
318  244  245
489  462  403
489  432  462
489  429  463
319  25  24
489  403  429
319  26  25
490  461  59
319  318  245
490  59  60
319  24  318
319  245  26
490  60  107
320  246  179
320  145  246
490  463  461
320  179  250
491  432  489
320  182  145
491  490  107
320  250  182
491  463  490
321  249  79
491  106  105
491  107  106
491  489  463
491  105  432
492  464  435
492  408  464
492  465  436
322  251  182
322  182  250
492  436  408
493  105  106
493  106  107
493  492  435
323  148  185
493  465  492
323  252  148
323  186  252
493  435  105
323  185  254
323  254  186
494  13  12
494  493  107
494  465  493
494  107  13
494  466  465
324  185  253
494  12  466
324  254  185
495  411  467
495  440  468
495  442  411
495  467  440
496  84  444
325  32  255
496  444  473
496  83  84
159  127  1
496  468  83
497  470  472
497  495  470
326  88  89
497  442  495
498  472  117
498  469  442
498  497  472
498  442  497
498  116  469
327  258  123
499  495  468
328  90  187
499  470  495
499  468  496
328  187  260
499  496  473
500  471  116
500  498  117
500  117  474
329  258  327
500  116  498
500  446  471
330  257  92
501  472  470
330  93  262
163  162  53
501  118  472
330  92  93
502  417  477
331  123  261
502  445  417
502  444  445
502  477  473
502  473  444
332  187  257
332  150  149
503  470  499
332  151  150
503  499  475
332  149  187
332  262  151
503  501  470
332  257  330
332  330  262
504  474  478
504  500  474
19  18  65
504  446  500
333  331  261
505  475  119
19  65  66
334  42  41
505  118  501
505  503  475
505  501  503
335  273  204
506  478  474
335  204  43
506  474  118
336  203  274
168  2  132
507  473  450
336  274  199
507  479  475
336  199  280
507  450  479
20  19  66
507  475  499
20  66  67
507  499  473
336  275  203
508  446  504
337  276  204
508  476  415
337  204  154
508  452  476
337  156  277
508  415  446
508  484  452
337  154  155
337  155  156
508  504  478
338  275  336
509  118  505
338  282  158
21  67  68
509  506  118
338  280  282
509  505  119
338  158  275
338  336  280
509  119  481
339  337  277
510  478  506
339  277  46
21  20  67
510  506  509
339  276  337
510  509  481
339  46  45
339  45  276
511  484  508
22  68  69
511  508  478
340  55  56
511  510  481
511  478  510
340  299  55
22  21  68
341  306  224
172  6  171
341  308  306
173  137  110
512  486  511
173  109  63
512  455  486
512  483  455
512  481  483
173  110  109
512  511  481
174  140  138
513  511  486
174  138  64
513  37  36
513  36  484
23  69  70
513  486  457
175  137  138
513  484  511
175  110  137
513  457  37
175  138  111
514  486  488
175  141  139
23  22  69
514  457  486
175  139  110
514  488  423
343  101  308
175  111  141
514  459  457
344  236  313
514  423  459
344  313  316
176  110  139
176  16  109
345  343  102
176  109  110
345  101  343
345  316  101
177  17  141
177  141  142
178  75  143
178  74  75
347  9  8
347  8  317
179  77  78
348  24  23
348  318  24
348  70  71
348  71  72
180  144  145
348  23  70
348  72  318
349  250  249
180  143  144
349  249  321
181  112  180
350  321  79
181  180  145
350  79  80
182  181  145
351  350  80
182  112  181
183  180  112
183  147  146
183  148  147
184  183  112
184  148  183
353  114  251
353  115  114
353  251  322
185  184  112
353  322  352
185  148  184
186  31  30
354  114  115
354  253  114
354  324  253
355  255  254
355  325  255
187  90  91
356  324  354
357  33  32
357  32  325
188  126  125
358  33  357
189  126  188
190  93  94
190  94  95
360  256  326
360  326  89
360  328  256
360  90  328
360  89  90
191  190  95
362  327  359
362  326  256
362  329  327
363  123  122
363  327  123
363  122  361
193  126  189
365  122  123
365  364  122
365  123  331
194  126  193
194  193  149
195  194  149
195  126  194
367  366  331
367  331  333
367  272  334
368  43  42
368  334  272
368  42  334
196  126  195
368  335  43
368  272  335
369  299  340
369  340  342
197  125  126
370  299  369
370  341  224
370  308  341
198  197  126
370  224  299
370  369  342
371  370  342
371  343  308
371  308  370
372  56  57
200  198  126
201  154  200
373  371  342
374  344  316
374  236  344
201  200  126
374  317  236
375  316  345
375  346  374
375  374  316
202  154  201
202  201  126
376  374  346
203  202  126
376  317  374
376  347  317
376  346  347
377  346  375
204  44  43
378  10  9
205  47  46
205  48  47
379  350  351
379  321  350
380  351  80
380  80  81
206  48  205
381  349  321
381  250  349
381  322  250
381  352  322
382  351  380
383  353  352
383  115  353
384  254  324
384  355  254
384  325  355
210  129  128
384  324  356
211  127  128
211  97  127
211  161  97
212  209  52
385  356  354
385  354  115
212  52  53
212  53  162
213  210  160
213  160  209
386  357  325
213  209  212
386  358  357
213  129  210
213  130  129
213  212  162
213  131  130
214  129  130
214  131  164
388  34  33
214  130  131
215  213  162
388  358  387
215  131  213
388  33  358
215  162  163
389  86  87
217  53  54
390  88  326
390  362  359
390  326  362
217  163  53
218  217  54
218  54  55
219  131  215
219  164  131
392  361  122
393  361  391
393  327  363
393  363  361
221  97  165
221  132  97
221  133  132
394  122  364
394  121  392
222  166  99
394  392  122
222  219  166
222  164  219
223  99  169
396  328  260
396  362  256
396  188  259
396  259  258
396  260  188
396  256  328
396  329  362
225  167  136
396  258  329
225  136  135
397  395  364
397  364  365
225  135  134
397  365  331
226  99  166
398  40  39
227  133  134
399  366  367
399  367  334
399  334  41
400  197  273
400  272  367
228  100  226
400  273  335
400  367  333
400  265  197
400  261  265
400  333  261
400  335  272
401  56  372
230  169  99
401  340  56
230  226  100
401  342  340
230  99  226
402  343  371
402  102  343
231  136  167
402  371  373
231  223  169
231  167  223
232  135  136
232  170  227
232  227  134
232  134  135
404  345  102
404  377  375
404  375  345
405  373  403
233  230  100
406  103  405
406  405  104
234  170  232
235  136  231
235  172  171
407  378  9
235  171  232
407  9  347
235  232  136
407  347  346
408  377  406
409  379  351
409  321  379
237  6  5
409  382  352
237  5  234
409  381  321
237  171  6
409  352  381
237  232  171
409  351  382
237  234  232
238  7  6
238  6  172
239  7  238
239  8  7
240  137  173
240  173  63
240  64  137
240  63  64
241  140  174
241  65  140
241  174  64
412  115  383
241  64  65
242  139  17
242  17  16
413  115  412
242  176  139
242  16  176
243  18  17
413  385  115
243  17  177
243  177  142
413  412  116
243  142  18
414  356  387
414  384  356
244  74  178
414  386  325
244  72  73
414  358  386
244  73  74
414  387  358
414  325  384
245  27  26
245  244  178
246  144  76
246  145  144
246  77  179
246  76  77
247  146  27
247  245  178
247  27  245
418  389  87
248  146  247
418  88  390
248  180  183
418  390  359
248  247  178
418  359  389
248  143  180
418  87  88
248  183  146
248  178  143
249  179  78
419  389  359
420  359  327
420  419  359
249  78  79
420  393  391
250  179  249
420  327  393
421  121  120
421  392  121
107  14  13
251  112  182
251  113  112
422  121  394
107  60  61
251  114  113
252  30  29
108  15  14
422  120  121
252  29  147
252  147  148
108  61  62
252  186  30
108  14  107
108  107  61
109  15  108
253  112  113
109  16  15
253  185  112
109  108  62
253  113  114
109  62  63
424  366  398
425  366  424
425  395  397
425  397  331
425  331  366
426  41  40
426  40  398
255  32  31
426  398  366
255  31  186
426  366  399
255  186  254
426  399  41
427  401  372
427  373  342
427  342  401
427  403  373
428  427  372
428  372  57
428  403  427
257  187  91
257  91  92
258  124  123
429  57  58
429  428  57
429  403  428
259  125  124
430  405  103
259  188  125
430  373  405
259  124  258
430  102  402
260  187  149
430  402  373
431  404  102
260  193  189
431  406  377
260  189  188
431  430  103
260  149  193
431  102  430
431  103  406
431  377  404
261  123  124
432  105  104
433  377  408
433  378  407
262  152  151
433  346  377
262  153  152
433  407  346
262  93  190
263  262  190
434  378  433
434  433  408
263  153  262
434  10  378
264  153  263
435  104  105
264  263  190
265  125  197
265  124  125
436  11  10
265  261  124
436  10  434
266  191  95
436  434  408
266  192  191
437  81  410
266  95  96
437  410  411
266  96  50
437  380  81
267  264  190
437  411  382
437  382  380
438  410  81
267  153  264
438  81  82
268  267  190
268  190  191
268  191  192
439  411  410
268  199  153
439  410  438
268  153  267
269  149  150
440  438  82
269  150  151
269  196  195
269  151  152
440  439  438
269  152  153
269  195  149
270  266  50
441  352  382
270  192  266
441  383  352
270  268  192
441  382  411
270  199  268
271  269  153
271  196  269
271  153  199
442  441  411
443  387  356
443  415  387
443  356  385
273  154  204
273  200  154
273  198  200
273  197  198
444  84  85
274  203  126
274  271  199
445  444  85
274  196  271
445  85  86
274  126  196
446  415  443
275  157  156
275  155  154
275  156  155
275  158  157
275  202  203
447  387  415
275  154  202
447  415  416
447  416  34
276  45  44
447  388  387
447  34  388
448  417  445
276  44  204
448  445  86
448  389  419
448  86  389
448  419  417
277  156  157
277  205  46
449  416  415
277  157  158
278  277  158
278  205  277
279  205  278
451  35  34
279  278  158
451  416  449
451  34  416
452  35  451
280  50  3
280  199  270
452  451  449
280  270  50
453  419  420
281  279  158
453  420  391
281  205  279
453  417  419
282  206  205
454  453  391
282  207  206
454  392  421
282  205  281
454  391  361
454  361  392
282  281  158
282  280  207
283  48  206
283  206  207
283  49  48
283  3  49
283  280  3
283  207  280
284  208  159
284  51  208
456  422  394
284  1  51
284  159  1
456  394  364
456  364  395
285  52  209
285  209  160
457  38  37
285  51  52
286  160  210
286  208  51
286  51  285
286  285  160
458  456  395
287  159  208
458  424  423
287  210  128
458  395  425
287  128  127
458  425  424
287  286  210
459  39  38
287  127  159
459  38  457
287  208  286
288  161  211
460  424  398
460  398  39
288  128  129
460  39  459
288  211  128
460  423  424
460  459  423
461  58  59
289  129  214
289  288  129
289  216  161
461  429  58
289  161  288
290  216  98
462  104  405
290  161  216
462  405  403
290  97  161
462  432  104
291  289  214
291  214  164
291  98  216
291  216  289
463  429  461
292  290  98
292  220  165
292  97  290
292  165  97
464  406  104
292  98  220
464  104  435
293  164  222
464  408  406
293  98  291
132  2  1
293  291  164
293  222  99
132  1  127
294  215  163
132  127  97
294  219  215
466  12  11
466  436  465
295  217  218
466  11  436
295  163  217
295  294  163
467  411  439
295  224  294
467  439  440
296  223  167
468  440  82
296  98  293
296  293  99
296  99  223
468  82  83
297  296  167
469  441  442
297  98  296
469  412  383
297  220  98
297  167  225
469  383  441
469  116  412
298  165  220
298  220  297
298  225  134
298  297  225
 VARIABLES = X Y Z
 ZONE N = 219, E = 410, DATAPACKING= POINT, ZONETYPE= FETRIANGLE
0  0  8
0  0  8
0  -7.5  18
0  -5.08154  8
0  -6.17622  8.01004
0  -6.54673  8.0466
0  -6.83745  8.11745
0  -7.05788  8.22446
0  -7.20985  8.35836
0  -7.32805  8.54452
0  -7.41676  8.80197
0  -7.47445  9.15918
0  -7.4995  9.76687
0  -7.5  13.2003
0  7.5  18
0  5.08154  8
0  6.17622  8.01004
0  6.54673  8.0466
0  6.83745  8.11745
0  7.05788  8.22446
0  7.20985  8.35836
0  7.32805  8.54452
0  7.41676  8.80197
0  7.47445  9.15918
0  7.4995  9.76687
0  7.5  13.2003
0  0  11.618
0  0  15.2132
0  3.73776  9.1703
0  3.74469  9.36342
0  3.74809  9.54345
0  3.74952  9.7106
0  3.74994  9.85763
0  3.75  10.0136
0  3.75  10.7124
0  3.75  12.4361
0  -3.73776  9.1703
0  3.75  14.1387
0  -3.74469  9.36342
0  -3.74809  9.54345
0  -3.74952  9.7106
0  -3.74994  9.85763
0  -3.75  10.0136
0  -3.75  10.7124
0  3.75  16.4814
0  -3.75  12.4361
0  -3.75  14.1387
0  -3.75  16.4814
0  5.09403  8.10249
0  5.3472  8.27828
0  5.42122  8.38093
0  5.47551  8.49101
0  5.51561  8.60418
0  5.54401  8.71171
0  5.56814  8.83351
0  5.625  11.1736
0  -1.69801  8.10249
0  1.875  10.6005
0  1.875  10.6845
0  1.875  10.7572
0  1.875  10.8337
0  5.625  14.6553
0  -5.09403  8.10249
0  -1.875  10.6005
0  -5.3472  8.27828
0  -1.875  10.6845
0  -1.875  10.7572
0  -5.42122  8.38093
0  -1.875  10.8337
0  -5.47551  8.49101
0  -5.51561  8.60418
0  -5.54401  8.71171
0  -5.56814  8.83351
0  5.625  17.2058
0  1.875  14.6553
0  1.875  15.8195
0  -5.625  11.1736
0  -1.875  14.6553
0  -1.875  15.8195
0  -1.875  17.2058
0  -5.625  14.6553
0  -5.625  17.2058
0  5.26193  8.00387
0  1.52386  8
0  5.23125  8.17601
0  2.25511  8.00387
0  6.54862  9.27641
0  4.55599  8.47148
0  4.60734  8.6505
0  4.62301  8.72771
0  4.63525  8.80047
0  5.625  9.97192
0  0.911198  8.47148
0  6.5625  12.2399
0  -2.53977  8
0  4.6875  11.8318
0  0  9.02102
0  6.5625  13.8937
0  2.8125  11.6742
0  -3.75852  8.00387
0  -2.73359  8.47148
0  -1.86452  9.02102
0  -5.26193  8.00387
0  -5.23125  8.17601
0  6.5625  16.1431
0  2.8125  13.4911
0  -4.60734  8.6505
0  -4.62301  8.72771
0  -4.63525  8.80047
0  4.6875  15.5099
0  0.9375  13.1049
0  2.8125  14.9286
0  -2.8125  11.6742
0  -6.54862  9.27641
0  -5.625  9.97192
0  -0.9375  13.1049
0  -4.6875  11.8318
0  -2.8125  13.4911
0  0  16.4814
0  -6.5625  12.2399
0  -0.9375  16.1431
0  -2.8125  14.9286
0  -6.5625  13.8937
0  -4.6875  15.5099
0  -6.5625  16.1431
0  3.61679  8.03051
0  6.05465  8.97934
0  3.39602  8.10249
0  5.6174  9.37309
0  5.14859  9.3535
0  0.348029  8
0  7.03125  11.0596
0  1.69801  8.10249
0  0.401866  8.03051
0  2.31666  8.78808
0  2.32263  8.87164
0  -0.442734  8.24237
0  0.462217  8.72317
0  1.40486  9.43282
0  -0.907236  8.42135
0  -2.81306  8.03051
0  -2.21367  8.24237
0  -1.81447  8.42135
0  7.03125  14.5225
0  -3.39602  8.10249
0  -4.42052  8.03051
0  -4.30428  8.13595
0  -3.24332  8.78808
0  1.875  12.4128
0  6.09375  15.36
0  7.03125  17.0185
0  4.21875  14.7906
0  5.15625  16.3103
0  -5.14859  9.3535
0  1.40625  13.8423
0  -6.05465  8.97934
0  -5.6174  9.37309
0  3.28125  15.663
0  -1.875  12.4128
0  0.46875  14.0856
0  -0.46875  14.0856
0  -1.40625  13.8423
0  -7.03125  11.0596
0  -4.21875  14.7906
0  -3.28125  15.663
0  -7.03125  14.5225
0  -6.09375  15.36
0  -5.15625  16.3103
0  -7.03125  17.0185
0  4.41247  8.08313
0  5.77621  8.71675
0  2.81306  8.03051
0  3.98461  8.24237
0  2.00933  8.03051
0  2.9242  8.34483
0  2.02445  8.34483
0  1.3282  8.24237
0  3.0403  9.27183
0  0.65135  8.16253
0  -0.584185  8.01317
0  0  8.10249
0  1.16225  8.90168
0  0  8.44602
0  -2.83285  8
0  -1.32373  8.2258
0  -0.461606  8.69162
0  -1.76497  8.2258
0  -2.54701  8.10249
0  -1.38482  8.69162
0  -3.09914  8.24237
0  -4.05468  8.03779
0  -3.37408  8.34483
0  -4.02437  8.30038
0  7.26563  16.0608
0  -4.49173  8.33256
0  -4.86572  8.23783
0  -5.77621  8.71675
0  -7.26563  16.0608
0  4.8837  8.16157
0  4.52144  8.22445
0  4.30771  8.4173
0  2.89922  8.13021
0  2.4697  8.13021
0  2.30289  8.1998
0  3.34813  8.7019
0  1.86424  8.1998
0  3.00684  8.74378
0  2.17533  8.54324
0  1.60752  8.5908
0  0.781347  8.2906
0  0.334357  8.28113
0  -0.524145  8.0794
0  -0.941171  8.07544
0  -2.86129  8.00171
0  -3.7136  8.18407
0  -4.40675  8.21981
0  -4.32292  8.45665
0  2.69948  8.2204
0  1.4702  8.39347
149  36  106
150  110  62
150  62  144
151  74  105
151  15  74
152  112  38
152  38  62
152  62  110
153  150  105
153  74  45
153  45  110
153  110  150
153  105  74
154  42  115
154  37  39
154  39  40
154  73  109
154  109  37
154  40  41
154  41  42
155  111  106
155  106  75
156  11  10
156  114  11
157  154  115
157  156  73
157  114  156
157  73  154
157  115  114
158  76  112
158  45  76
158  112  152
158  110  45
158  152  110
159  113  69
159  116  118
159  118  46
159  46  113
159  69  27
159  27  116
160  155  75
160  75  28
160  111  155
161  116  111
161  28  78
161  111  160
161  160  28
162  118  116
162  78  118
162  116  161
162  161  78
163  115  77
163  14  13
163  77  120
163  13  115
163  120  14
164  81  47
164  124  81
164  47  122
165  79  48
165  122  79
165  48  124
165  124  164
165  164  122
166  123  81
166  14  123
167  166  81
167  81  124
168  48  82
168  124  48
168  82  125
168  167  124
168  125  167
169  82  3
169  125  82
170  126  83
170  83  49
170  128  126
171  51  21
171  21  22
171  52  51
171  53  52
171  22  127
171  55  54
171  127  55
171  54  53
172  86  126
172  126  128
173  128  170
174  86  172
174  133  134
174  134  131
174  131  86
178  139  136
178  31  32
178  32  33
178  34  58
178  33  34
178  29  30
178  30  31
178  58  139
179  133  177
179  134  133
180  131  134
180  57  141
181  134  179
182  136  139
182  97  138
182  138  93
182  139  97
183  93  138
183  140  137
184  100  95
184  131  180
184  95  131
185  137  140
185  140  143
186  183  138
186  140  183
186  138  97
187  185  143
187  142  57
187  143  142
187  57  185
188  145  141
188  141  57
188  57  142
189  140  186
189  186  97
189  97  102
189  102  143
189  143  140
190  145  188
190  142  101
190  188  142
191  147  146
191  146  100
191  145  147
191  141  145
192  190  101
192  101  148
194  105  150
194  150  144
194  15  151
194  151  105
194  26  15
194  144  26
195  107  70
195  70  68
196  195  68
196  68  65
196  65  104
196  63  147
196  104  63
197  10  9
197  73  156
197  71  72
197  68  70
197  70  71
197  9  68
197  156  10
197  72  73
198  166  167
198  3  14
198  14  166
198  167  125
198  169  3