 VARIABLES = X Y
 ZONE N = 10, E = 9, DATAPACKING= POINT, ZONETYPE= FETRIANGLE
0.1  -0.3
0.158125  -0.3
0.274375  -0.3
0.390625  -0.3
0.506875  -0.3
0.623125  -0.3
0.739375  -0.3
0.855625  -0.3
0.971875  -0.3
1.03  -0.3
1  2  1
2  3  2
3  4  3
4  5  4
5  6  5
6  7  6
7  8  7
8  9  8
9  10  9
 VARIABLES = X Y
 ZONE N = 10, E = 9, DATAPACKING= POINT, ZONETYPE= FETRIANGLE
1.03  -0.3
1.03  -0.22875
1.03  -0.08625
1.03  0.05625
1.03  0.19875
1.03  0.34125
1.03  0.48375
1.03  0.62625
1.03  0.76875
1.03  0.84
1  2  1
2  3  2
3  4  3
4  5  4
5  6  5
6  7  6
7  8  7
8  9  8
9  10  9
 VARIABLES = X Y
 ZONE N = 10, E = 9, DATAPACKING= POINT, ZONETYPE= FETRIANGLE
1.03  0.84
0.971875  0.84
0.855625  0.84
0.739375  0.84
0.623125  0.84
0.506875  0.84
0.390625  0.84
0.274375  0.84
0.158125  0.84
0.1  0.84
1  2  1
2  3  2
3  4  3
4  5  4
5  6  5
6  7  6
7  8  7
8  9  8
9  10  9
 VARIABLES = X Y
 ZONE N = 10, E = 9, DATAPACKING= POINT, ZONETYPE= FETRIANGLE
0.1  0.84
0.1  0.76875
0.1  0.62625
0.1  0.48375
0.1  0.34125
0.1  0.19875
0.1  0.05625
0.1  -0.08625
0.1  -0.22875
0.1  -0.3
1  2  1
2  3  2
3  4  3
4  5  4
5  6  5
6  7  6
7  8  7
8  9  8
9  10  9
