 VARIABLES = X Y Z
 ZONE N = 78, E = 75, DATAPACKING= POINT, ZONETYPE= FETRIANGLE
0.0162938  7.50421  18
0.0162938  6.56618  18
0.0162938  4.69013  18
0.0162938  2.81408  18
0.0162938  0.938026  18
0.0162938  -0.938026  18
0.0162938  -2.81408  18
0.0162938  -4.69013  18
0.0162938  -6.56618  18
0.0162938  -7.50421  18
0.0162938  -9.99121e-16  7.99704
0.0162938  1.06189  7.99704
0.0162938  3.18567  7.99704
0.0162938  5.30945  7.99704
0.0162938  6.43657  8.02792
0.0162938  6.56793  8.04655
0.0162938  6.69797  8.07285
0.0162938  6.79398  8.09898
0.0162938  6.85688  8.1201
0.0162938  6.91854  8.14462
0.0162938  6.97855  8.17292
0.0162938  7.03642  8.20538
0.0162938  7.07808  8.23263
0.0162938  7.10485  8.25223
0.0162938  7.13074  8.27299
0.0162938  7.15565  8.29491
0.0162938  7.17951  8.31798
0.0162938  7.20224  8.34216
0.0162938  7.22379  8.36739
0.0162938  7.24417  8.39357
0.0162938  7.27258  8.43445
0.0162938  7.30655  8.49144
0.0162938  7.33637  8.55073
0.0162938  7.36239  8.61177
0.0162938  7.38502  8.67416
0.0162938  7.41338  8.76953
0.0162938  7.44256  8.89896
0.0162938  7.47218  9.09575
0.0162938  7.49355  9.3603
0.0162938  7.50459  10.5548
0.0162938  7.50421  12.682
0.0162938  7.50421  14.8092
0.0162938  7.50421  16.9364
0.0162938  7.50421  18
0.0162938  8.88178e-16  7.99704
0.0162938  -1.06189  7.99704
0.0162938  -3.18566  7.99704
0.0162938  -5.30944  7.99704
0.0162938  -6.43656  8.02792
0.0162938  -6.56792  8.04655
0.0162938  -6.69796  8.07284
0.0162938  -6.79396  8.09898
0.0162938  -6.85687  8.1201
0.0162938  -6.91853  8.14461
0.0162938  -6.97854  8.17291
0.0162938  -7.03641  8.20537
0.0162938  -7.07807  8.23262
0.0162938  -7.10484  8.25222
0.0162938  -7.13073  8.27298
0.0162938  -7.15564  8.2949
0.0162938  -7.1795  8.31797
0.0162938  -7.20223  8.34215
0.0162938  -7.22378  8.36738
0.0162938  -7.24416  8.39356
0.0162938  -7.27257  8.43443
0.0162938  -7.30655  8.49143
0.0162938  -7.33636  8.55071
0.0162938  -7.36239  8.61176
0.0162938  -7.38501  8.67414
0.0162938  -7.41337  8.76952
0.0162938  -7.44255  8.89895
0.0162938  -7.47218  9.09573
0.0162938  -7.49355  9.36028
0.0162938  -7.50459  10.5548
0.0162938  -7.50421  12.682
0.0162938  -7.50421  14.8092
0.0162938  -7.50421  16.9364
0.0162938  -7.50421  18
1  2  2
2  3  3
3  4  4
4  5  5
5  6  6
6  7  7
7  8  8
8  9  9
9  10  10
11  12  12
12  13  13
13  14  14
14  15  15
15  16  16
16  17  17
17  18  18
18  19  19
19  20  20
20  21  21
21  22  22
22  23  23
23  24  24
24  25  25
25  26  26
26  27  27
27  28  28
28  29  29
29  30  30
30  31  31
31  32  32
32  33  33
33  34  34
34  35  35
35  36  36
36  37  37
37  38  38
38  39  39
39  40  40
40  41  41
41  42  42
42  43  43
43  44  44
45  46  46
46  47  47
47  48  48
48  49  49
49  50  50
50  51  51
51  52  52
52  53  53
53  54  54
54  55  55
55  56  56
56  57  57
57  58  58
58  59  59
59  60  60
60  61  61
61  62  62
62  63  63
63  64  64
64  65  65
65  66  66
66  67  67
67  68  68
68  69  69
69  70  70
70  71  71
71  72  72
72  73  73
73  74  74
74  75  75
75  76  76
76  77  77
77  78  78
 VARIABLES = X Y Z
 ZONE N = 78, E = 75, DATAPACKING= POINT, ZONETYPE= FETRIANGLE
8.01466  9.36808  18
8.01466  8.19707  18
8.01466  5.85505  18
8.01466  3.51303  18
8.01466  1.17101  18
8.01466  -1.17101  18
8.01466  -3.51303  18
8.01466  -5.85505  18
8.01466  -8.19707  18
8.01466  -9.36808  18
8.01466  -9.57562e-16  6.49044
8.01466  1.26153  6.49044
8.01466  3.78459  6.49044
8.01466  6.30765  6.49045
8.01466  7.72662  6.50339
8.01466  8.04088  6.5285
8.01466  8.27467  6.5635
8.01466  8.4284  6.59818
8.01466  8.54165  6.63206
8.01466  8.61568  6.65914
8.01466  8.68806  6.69035
8.01466  8.75829  6.72613
8.01466  8.82576  6.7669
8.01466  8.87409  6.80095
8.01466  8.90505  6.82535
8.01466  8.93488  6.85113
8.01466  8.96347  6.87826
8.01466  8.99075  6.90672
8.01466  9.01667  6.93641
8.01466  9.04124  6.96724
8.01466  9.06445  6.9991
8.01466  9.09677  7.04861
8.01466  9.1354  7.11732
8.01466  9.16925  7.1885
8.01466  9.19875  7.2616
8.01466  9.22434  7.33616
8.01466  9.2563  7.44996
8.01466  9.28893  7.60415
8.01466  9.31248  7.76
8.01466  9.35469  9.1029
8.01466  9.35864  11.6449
8.01466  9.36249  14.187
8.01466  9.36624  16.729
8.01466  9.36808  18
8.01466  1.77636e-15  6.49044
8.01466  -1.26153  6.49044
8.01466  -3.78459  6.49044
8.01466  -6.30764  6.49045
8.01466  -7.72662  6.50339
8.01466  -8.04088  6.5285
8.01466  -8.27467  6.5635
8.01466  -8.4284  6.59818
8.01466  -8.54165  6.63205
8.01466  -8.61568  6.65914
8.01466  -8.68806  6.69035
8.01466  -8.75829  6.72613
8.01466  -8.82576  6.7669
8.01466  -8.87409  6.80095
8.01466  -8.90505  6.82535
8.01466  -8.93488  6.85113
8.01466  -8.96347  6.87826
8.01466  -8.99075  6.90672
8.01466  -9.01667  6.93641
8.01466  -9.04124  6.96724
8.01466  -9.06445  6.9991
8.01466  -9.09677  7.04861
8.01466  -9.1354  7.11732
8.01466  -9.16925  7.1885
8.01466  -9.19875  7.2616
8.01466  -9.22434  7.33616
8.01466  -9.2563  7.44996
8.01466  -9.28893  7.60415
8.01466  -9.31248  7.76
8.01466  -9.35469  9.1029
8.01466  -9.35864  11.6449
8.01466  -9.36249  14.187
8.01466  -9.36624  16.729
8.01466  -9.36808  18
1  2  2
2  3  3
3  4  4
4  5  5
5  6  6
6  7  7
7  8  8
8  9  9
9  10  10
11  12  12
12  13  13
13  14  14
14  15  15
15  16  16
16  17  17
17  18  18
18  19  19
19  20  20
20  21  21
21  22  22
22  23  23
23  24  24
24  25  25
25  26  26
26  27  27
27  28  28
28  29  29
29  30  30
30  31  31
31  32  32
32  33  33
33  34  34
34  35  35
35  36  36
36  37  37
37  38  38
38  39  39
39  40  40
40  41  41
41  42  42
42  43  43
43  44  44
45  46  46
46  47  47
47  48  48
48  49  49
49  50  50
50  51  51
51  52  52
52  53  53
53  54  54
54  55  55
55  56  56
56  57  57
57  58  58
58  59  59
59  60  60
60  61  61
61  62  62
62  63  63
63  64  64
64  65  65
65  66  66
66  67  67
67  68  68
68  69  69
69  70  70
70  71  71
71  72  72
72  73  73
73  74  74
74  75  75
75  76  76
76  77  77
77  78  78
 VARIABLES = X Y Z
 ZONE N = 78, E = 75, DATAPACKING= POINT, ZONETYPE= FETRIANGLE
16.013  10.7892  18
16.013  9.44053  18
16.013  6.74324  18
16.013  4.04594  18
16.013  1.34865  18
16.013  -1.34865  18
16.013  -4.04594  18
16.013  -6.74324  18
16.013  -9.44053  18
16.013  -10.7892  18
16.013  -9.09973e-16  4.89571
16.013  1.44539  4.89572
16.013  4.33618  4.89575
16.013  7.22696  4.89578
16.013  9.03303  4.92237
16.013  9.48066  4.97979
16.013  9.65679  5.0196
16.013  9.78654  5.05845
16.013  9.87135  5.0895
16.013  9.95428  5.12525
16.013  10.0348  5.16623
16.013  10.0931  5.20068
16.013  10.1308  5.2255
16.013  10.1675  5.25186
16.013  10.203  5.27977
16.013  10.2372  5.30924
16.013  10.2701  5.34027
16.013  10.3014  5.3728
16.013  10.3312  5.40675
16.013  10.3594  5.44199
16.013  10.3861  5.47841
16.013  10.4234  5.535
16.013  10.4679  5.61356
16.013  10.5071  5.69495
16.013  10.5412  5.77856
16.013  10.5709  5.86385
16.013  10.6082  5.99406
16.013  10.6464  6.17054
16.013  10.6742  6.34897
16.013  10.7297  7.8826
16.013  10.7473  10.7733
16.013  10.7644  13.664
16.013  10.781  16.5547
16.013  10.7892  18
16.013  1.77636e-15  4.89571
16.013  -1.44539  4.89572
16.013  -4.33618  4.89575
16.013  -7.22696  4.89578
16.013  -8.85275  4.91072
16.013  -9.21281  4.93959
16.013  -9.48066  4.97979
16.013  -9.65679  5.0196
16.013  -9.78654  5.05845
16.013  -9.87135  5.0895
16.013  -9.95428  5.12525
16.013  -10.0348  5.16623
16.013  -10.1121  5.2129
16.013  -10.1675  5.25186
16.013  -10.203  5.27977
16.013  -10.2372  5.30924
16.013  -10.2701  5.34027
16.013  -10.3014  5.3728
16.013  -10.3312  5.40675
16.013  -10.3594  5.44199
16.013  -10.3861  5.47841
16.013  -10.4234  5.535
16.013  -10.4679  5.61356
16.013  -10.5071  5.69495
16.013  -10.5412  5.77856
16.013  -10.5709  5.86385
16.013  -10.6082  5.99406
16.013  -10.6464  6.17054
16.013  -10.6742  6.34897
16.013  -10.7297  7.8826
16.013  -10.7473  10.7733
16.013  -10.7644  13.664
16.013  -10.781  16.5547
16.013  -10.7892  18
1  2  2
2  3  3
3  4  4
4  5  5
5  6  6
6  7  7
7  8  8
8  9  9
9  10  10
11  12  12
12  13  13
13  14  14
14  15  15
15  16  16
16  17  17
17  18  18
18  19  19
19  20  20
20  21  21
21  22  22
22  23  23
23  24  24
24  25  25
25  26  26
26  27  27
27  28  28
28  29  29
29  30  30
30  31  31
31  32  32
32  33  33
33  34  34
34  35  35
35  36  36
36  37  37
37  38  38
38  39  39
39  40  40
40  41  41
41  42  42
42  43  43
43  44  44
45  46  46
46  47  47
47  48  48
48  49  49
49  50  50
50  51  51
51  52  52
52  53  53
53  54  54
54  55  55
55  56  56
56  57  57
57  58  58
58  59  59
59  60  60
60  61  61
61  62  62
62  63  63
63  64  64
64  65  65
65  66  66
66  67  67
67  68  68
68  69  69
69  70  70
70  71  71
71  72  72
72  73  73
73  74  74
74  75  75
75  76  76
76  77  77
77  78  78
 VARIABLES = X Y Z
 ZONE N = 79, E = 76, DATAPACKING= POINT, ZONETYPE= FETRIANGLE
24.0114  11.7264  18
24.0114  10.2606  18
24.0114  7.32899  18
24.0114  4.39739  18
24.0114  1.4658  18
24.0114  -1.4658  18
24.0114  -4.39739  18
24.0114  -7.32899  18
24.0114  -10.2606  18
24.0114  -11.7264  18
24.0114  -8.54697e-16  3.2833
24.0114  1.58717  3.28336
24.0114  4.76151  3.28346
24.0114  7.93586  3.28357
24.0114  9.72064  3.31329
24.0114  10.0163  3.34594
24.0114  10.2117  3.37939
24.0114  10.3567  3.41259
24.0114  10.4522  3.4394
24.0114  10.5463  3.47053
24.0114  10.6388  3.50651
24.0114  10.7289  3.54788
24.0114  10.8161  3.59518
24.0114  10.879  3.63482
24.0114  10.9196  3.6633
24.0114  10.959  3.69346
24.0114  10.997  3.72531
24.0114  11.0336  3.75884
24.0114  11.0685  3.79401
24.0114  11.1018  3.83076
24.0114  11.1335  3.86895
24.0114  11.1778  3.92869
24.0114  11.2312  4.01224
24.0114  11.2786  4.09941
24.0114  11.3202  4.18942
24.0114  11.3567  4.28163
24.0114  11.3887  4.37553
24.0114  11.429  4.51867
24.0114  11.4711  4.71247
24.0114  11.5148  5.00668
24.0114  11.5798  6.79762
24.0114  11.6233  9.99828
24.0114  11.6654  13.199
24.0114  11.7064  16.3996
24.0114  11.7264  18
24.0114  0  3.2833
24.0114  -1.58717  3.28336
24.0114  -4.76151  3.28346
24.0114  -7.93586  3.28357
24.0114  -9.72064  3.31329
24.0114  -10.0163  3.34594
24.0114  -10.2117  3.37939
24.0114  -10.4046  3.42549
24.0114  -10.5463  3.47053
24.0114  -10.6388  3.50651
24.0114  -10.7289  3.54788
24.0114  -10.8161  3.59518
24.0114  -10.879  3.63482
24.0114  -10.9196  3.6633
24.0114  -10.959  3.69346
24.0114  -10.997  3.72531
24.0114  -11.0336  3.75884
24.0114  -11.0685  3.79401
24.0114  -11.1018  3.83076
24.0114  -11.1335  3.86895
24.0114  -11.1778  3.92869
24.0114  -11.2312  4.01224
24.0114  -11.2786  4.09941
24.0114  -11.3202  4.18942
24.0114  -11.3567  4.28163
24.0114  -11.3887  4.37553
24.0114  -11.429  4.51867
24.0114  -11.4711  4.71247
24.0114  -11.5148  5.00668
24.0114  -11.5798  6.79762
24.0114  -11.6233  9.99828
24.0114  -11.6654  13.199
24.0114  -11.7064  16.3996
24.0114  -11.7264  18
1  2  2
2  3  3
3  4  4
4  5  5
5  6  6
6  7  7
7  8  8
8  9  9
9  10  10
11  12  12
12  13  13
13  14  14
14  15  15
15  16  16
16  17  17
17  18  18
18  19  19
19  20  20
20  21  21
21  22  22
22  23  23
23  24  24
24  25  25
25  26  26
26  27  27
27  28  28
28  29  29
29  30  30
30  31  31
31  32  32
32  33  33
33  34  34
34  35  35
35  36  36
36  37  37
37  38  38
38  39  39
39  40  40
40  41  41
41  42  42
42  43  43
43  44  44
44  45  45
46  47  47
47  48  48
48  49  49
49  50  50
50  51  51
51  52  52
52  53  53
53  54  54
54  55  55
55  56  56
56  57  57
57  58  58
58  59  59
59  60  60
60  61  61
61  62  62
62  63  63
63  64  64
64  65  65
65  66  66
66  67  67
67  68  68
68  69  69
69  70  70
70  71  71
71  72  72
72  73  73
73  74  74
74  75  75
75  76  76
76  77  77
77  78  78
78  79  79
 VARIABLES = X Y Z
 ZONE N = 81, E = 78, DATAPACKING= POINT, ZONETYPE= FETRIANGLE
32.0098  12.2025  18
32.0098  10.6772  18
32.0098  7.62654  18
32.0098  4.57592  18
32.0098  1.52531  18
32.0098  -1.52531  18
32.0098  -4.57592  18
32.0098  -7.62654  18
32.0098  -10.6772  18
32.0098  -12.2025  18
32.0098  -7.90153e-16  1.82927
32.0098  1.6923  1.82942
32.0098  5.07689  1.82972
32.0098  8.46148  1.83
32.0098  10.2568  1.89346
32.0098  10.4651  1.92958
32.0098  10.6195  1.9658
32.0098  10.7211  1.99519
32.0098  10.8211  2.02942
32.0098  10.9192  2.06905
32.0098  11.0146  2.11465
32.0098  11.1066  2.16675
32.0098  11.1729  2.21034
32.0098  11.2156  2.2416
32.0098  11.2569  2.27463
32.0098  11.2967  2.30944
32.0098  11.3534  2.36492
32.0098  11.4062  2.42413
32.0098  11.4391  2.46549
32.0098  11.4853  2.52999
32.0098  11.541  2.6199
32.0098  11.5904  2.71342
32.0098  11.634  2.80976
32.0098  11.6725  2.90829
32.0098  11.7063  3.00848
32.0098  11.7495  3.16108
32.0098  11.7953  3.36755
32.0098  11.8444  3.6809
32.0098  11.8845  4.10205
32.0098  11.9434  6.01948
32.0098  12.0198  9.44244
32.0098  12.0943  12.8654
32.0098  12.1669  16.2885
32.0098  12.2025  18
32.0098  0  1.82927
32.0098  -1.6923  1.82942
32.0098  -5.07689  1.82972
32.0098  -7.61533  1.82994
32.0098  -8.88454  1.83007
32.0098  -9.51906  1.83702
32.0098  -9.9415  1.85889
32.0098  -10.2568  1.89346
32.0098  -10.4651  1.92958
32.0098  -10.6195  1.9658
32.0098  -10.7211  1.99519
32.0098  -10.8211  2.02942
32.0098  -10.9192  2.06905
32.0098  -11.0146  2.11465
32.0098  -11.1066  2.16675
32.0098  -11.1729  2.21034
32.0098  -11.2156  2.2416
32.0098  -11.2569  2.27463
32.0098  -11.2967  2.30944
32.0098  -11.3349  2.346
32.0098  -11.3714  2.38426
32.0098  -11.4062  2.42413
32.0098  -11.4391  2.46549
32.0098  -11.4853  2.52999
32.0098  -11.541  2.6199
32.0098  -11.5904  2.71342
32.0098  -11.634  2.80976
32.0098  -11.6899  2.9582
32.0098  -11.7495  3.16108
32.0098  -11.7953  3.36755
32.0098  -11.8444  3.6809
32.0098  -11.8845  4.10205
32.0098  -11.9434  6.01948
32.0098  -12.0198  9.44244
32.0098  -12.0943  12.8654
32.0098  -12.1669  16.2885
32.0098  -12.2025  18
1  2  2
2  3  3
3  4  4
4  5  5
5  6  6
6  7  7
7  8  8
8  9  9
9  10  10
11  12  12
12  13  13
13  14  14
14  15  15
15  16  16
16  17  17
17  18  18
18  19  19
19  20  20
20  21  21
21  22  22
22  23  23
23  24  24
24  25  25
25  26  26
26  27  27
27  28  28
28  29  29
29  30  30
30  31  31
31  32  32
32  33  33
33  34  34
34  35  35
35  36  36
36  37  37
37  38  38
38  39  39
39  40  40
40  41  41
41  42  42
42  43  43
43  44  44
45  46  46
46  47  47
47  48  48
48  49  49
49  50  50
50  51  51
51  52  52
52  53  53
53  54  54
54  55  55
55  56  56
56  57  57
57  58  58
58  59  59
59  60  60
60  61  61
61  62  62
62  63  63
63  64  64
64  65  65
65  66  66
66  67  67
67  68  68
68  69  69
69  70  70
70  71  71
71  72  72
72  73  73
73  74  74
74  75  75
75  76  76
76  77  77
77  78  78
78  79  79
79  80  80
80  81  81
 VARIABLES = X Y Z
 ZONE N = 80, E = 77, DATAPACKING= POINT, ZONETYPE= FETRIANGLE
40.0081  12.3972  18
40.0081  10.8475  18
40.0081  7.74822  18
40.0081  4.64893  18
40.0081  1.54964  18
40.0081  -1.54964  18
40.0081  -4.64893  18
40.0081  -7.74822  18
40.0081  -10.8475  18
40.0081  -12.3972  18
40.0081  9.80762e-23  0.848713
40.0081  1.69882  0.849123
40.0081  5.09647  0.849943
40.0081  8.49412  0.850753
40.0081  10.2942  0.916491
40.0081  10.5027  0.953776
40.0081  10.6572  0.991074
40.0081  10.7589  1.02131
40.0081  10.8591  1.05643
40.0081  10.9571  1.09698
40.0081  11.0524  1.14349
40.0081  11.1444  1.19643
40.0081  11.2107  1.24054
40.0081  11.2533  1.2721
40.0081  11.2946  1.30538
40.0081  11.3345  1.34038
40.0081  11.3729  1.37705
40.0081  11.4096  1.41537
40.0081  11.4447  1.45537
40.0081  11.4783  1.49718
40.0081  11.5261  1.56315
40.0081  11.5848  1.657
40.0081  11.6377  1.75603
40.0081  11.6844  1.85812
40.0081  11.7255  1.96256
40.0081  11.7618  2.06877
40.0081  11.8082  2.23057
40.0081  11.8577  2.44951
40.0081  11.9116  2.78182
40.0081  11.957  3.22856
40.0081  12.0343  5.26537
40.0081  12.1413  8.90374
40.0081  12.2456  12.5422
40.0081  12.3473  16.1807
40.0081  12.3972  18
40.0081  0  0.848713
40.0081  -1.69882  0.849123
40.0081  -5.09647  0.849943
40.0081  -7.64471  0.850558
40.0081  -8.91882  0.850883
40.0081  -9.55487  0.858093
40.0081  -9.97821  0.880722
40.0081  -10.2942  0.916491
40.0081  -10.5027  0.953776
40.0081  -10.6572  0.991074
40.0081  -10.7589  1.02131
40.0081  -10.8591  1.05643
40.0081  -10.9571  1.09698
40.0081  -11.0524  1.14349
40.0081  -11.1444  1.19643
40.0081  -11.2321  1.25611
40.0081  -11.2946  1.30538
40.0081  -11.3345  1.34038
40.0081  -11.3729  1.37705
40.0081  -11.4096  1.41537
40.0081  -11.4617  1.47605
40.0081  -11.5261  1.56315
40.0081  -11.5848  1.657
40.0081  -11.6377  1.75603
40.0081  -11.6844  1.85812
40.0081  -11.7442  2.01547
40.0081  -11.8082  2.23057
40.0081  -11.8577  2.44951
40.0081  -11.9116  2.78182
40.0081  -11.957  3.22856
40.0081  -12.0343  5.26537
40.0081  -12.1413  8.90374
40.0081  -12.2456  12.5422
40.0081  -12.3473  16.1807
40.0081  -12.3972  18
1  2  2
2  3  3
3  4  4
4  5  5
5  6  6
6  7  7
7  8  8
8  9  9
9  10  10
11  12  12
12  13  13
13  14  14
14  15  15
15  16  16
16  17  17
17  18  18
18  19  19
19  20  20
20  21  21
21  22  22
22  23  23
23  24  24
24  25  25
25  26  26
26  27  27
27  28  28
28  29  29
29  30  30
30  31  31
31  32  32
32  33  33
33  34  34
34  35  35
35  36  36
36  37  37
37  38  38
38  39  39
39  40  40
40  41  41
41  42  42
42  43  43
43  44  44
44  45  45
46  47  47
47  48  48
48  49  49
49  50  50
50  51  51
51  52  52
52  53  53
53  54  54
54  55  55
55  56  56
56  57  57
57  58  58
58  59  59
59  60  60
60  61  61
61  62  62
62  63  63
63  64  64
64  65  65
65  66  66
66  67  67
67  68  68
68  69  69
69  70  70
70  71  71
71  72  72
72  73  73
73  74  74
74  75  75
75  76  76
76  77  77
77  78  78
78  79  79
79  80  80
 VARIABLES = X Y Z
 ZONE N = 83, E = 80, DATAPACKING= POINT, ZONETYPE= FETRIANGLE
48.0065  12.4758  18
48.0065  10.9163  18
48.0065  7.79738  18
48.0065  4.67843  18
48.0065  1.55948  18
48.0065  -1.55948  18
48.0065  -4.67843  18
48.0065  -7.79738  18
48.0065  -10.9163  18
48.0065  -12.4758  18
48.0065  -8.8431e-16  0.38512
48.0065  1.72116  0.386508
48.0065  5.16348  0.389282
48.0065  7.74522  0.391362
48.0065  9.03606  0.392736
48.0065  9.68011  0.407143
48.0065  10.0015  0.430516
48.0065  10.2148  0.456519
48.0065  10.4262  0.493981
48.0065  10.5828  0.531647
48.0065  10.6859  0.562252
48.0065  10.7873  0.59786
48.0065  10.8866  0.639018
48.0065  10.9832  0.686255
48.0065  11.0763  0.740032
48.0065  11.1651  0.800644
48.0065  11.2487  0.868204
48.0065  11.3076  0.923367
48.0065  11.3448  0.962202
48.0065  11.3975  1.02364
48.0065  11.4629  1.11189
48.0065  11.5226  1.20706
48.0065  11.5764  1.30732
48.0065  11.6241  1.41063
48.0065  11.6662  1.51631
48.0065  11.7035  1.62379
48.0065  11.7515  1.78752
48.0065  11.8031  2.00908
48.0065  11.8435  2.23296
48.0065  11.9102  2.79783
48.0065  12.014  5.09193
48.0065  12.1504  8.77979
48.0065  12.2831  12.4678
48.0065  12.4124  16.1559
48.0065  12.4758  18
48.0065  0  0.38512
48.0065  -1.72116  0.386508
48.0065  -5.16348  0.389282
48.0065  -7.74522  0.391362
48.0065  -9.03606  0.392736
48.0065  -9.68011  0.407143
48.0065  -10.0015  0.430516
48.0065  -10.2148  0.456519
48.0065  -10.4262  0.493981
48.0065  -10.5828  0.531647
48.0065  -10.6859  0.562252
48.0065  -10.7873  0.59786
48.0065  -10.8866  0.639018
48.0065  -10.9832  0.686255
48.0065  -11.0763  0.740032
48.0065  -11.1651  0.800644
48.0065  -11.2284  0.850665
48.0065  -11.2687  0.88617
48.0065  -11.3076  0.923367
48.0065  -11.3448  0.962202
48.0065  -11.3803  1.00271
48.0065  -11.4144  1.04504
48.0065  -11.4629  1.11189
48.0065  -11.5226  1.20706
48.0065  -11.5764  1.30732
48.0065  -11.6241  1.41063
48.0065  -11.6662  1.51631
48.0065  -11.7035  1.62379
48.0065  -11.7515  1.78752
48.0065  -11.8031  2.00908
48.0065  -11.8435  2.23296
48.0065  -11.8883  2.57129
48.0065  -11.9274  3.02478
48.0065  -12.014  5.09193
48.0065  -12.1504  8.77979
48.0065  -12.2831  12.4678
48.0065  -12.4124  16.1559
48.0065  -12.4758  18
1  2  2
2  3  3
3  4  4
4  5  5
5  6  6
6  7  7
7  8  8
8  9  9
9  10  10
11  12  12
12  13  13
13  14  14
14  15  15
15  16  16
16  17  17
17  18  18
18  19  19
19  20  20
20  21  21
21  22  22
22  23  23
23  24  24
24  25  25
25  26  26
26  27  27
27  28  28
28  29  29
29  30  30
30  31  31
31  32  32
32  33  33
33  34  34
34  35  35
35  36  36
36  37  37
37  38  38
38  39  39
39  40  40
40  41  41
41  42  42
42  43  43
43  44  44
44  45  45
46  47  47
47  48  48
48  49  49
49  50  50
50  51  51
51  52  52
52  53  53
53  54  54
54  55  55
55  56  56
56  57  57
57  58  58
58  59  59
59  60  60
60  61  61
61  62  62
62  63  63
63  64  64
64  65  65
65  66  66
66  67  67
67  68  68
68  69  69
69  70  70
70  71  71
71  72  72
72  73  73
73  74  74
74  75  75
75  76  76
76  77  77
77  78  78
78  79  79
79  80  80
80  81  81
81  82  82
82  83  83
 VARIABLES = X Y Z
 ZONE N = 79, E = 76, DATAPACKING= POINT, ZONETYPE= FETRIANGLE
56.0049  12.4973  18
56.0049  10.9351  18
56.0049  7.81082  18
56.0049  4.68649  18
56.0049  1.56216  18
56.0049  -1.56216  18
56.0049  -4.68649  18
56.0049  -7.81082  18
56.0049  -10.9351  18
56.0049  -12.4973  18
56.0049  -8.91622e-16  0.175183
56.0049  1.74028  0.178786
56.0049  5.22085  0.18599
56.0049  7.83128  0.191391
56.0049  9.13371  0.195937
56.0049  9.77304  0.222716
56.0049  10.0909  0.258482
56.0049  10.3008  0.296078
56.0049  10.4562  0.333795
56.0049  10.5584  0.364375
56.0049  10.6589  0.399916
56.0049  10.7574  0.440934
56.0049  10.8531  0.487926
56.0049  10.9455  0.541326
56.0049  11.0336  0.601406
56.0049  11.0965  0.650911
56.0049  11.1366  0.686016
56.0049  11.1753  0.722765
56.0049  11.2124  0.761107
56.0049  11.2479  0.801105
56.0049  11.2821  0.842917
56.0049  11.3307  0.908969
56.0049  11.3909  1.00304
56.0049  11.4454  1.10256
56.0049  11.4939  1.20519
56.0049  11.5568  1.36344
56.0049  11.625  1.57991
56.0049  11.6789  1.8004
56.0049  11.7398  2.13538
56.0049  11.8142  2.81241
56.0049  11.9305  5.10614
56.0049  12.0982  8.78984
56.0049  12.2611  12.4738
56.0049  12.4197  16.1579
56.0049  12.4973  18
56.0049  1.77636e-15  0.175183
56.0049  -1.74028  0.178786
56.0049  -5.22085  0.18599
56.0049  -7.83128  0.191391
56.0049  -9.13371  0.195937
56.0049  -9.77304  0.222716
56.0049  -10.0909  0.258482
56.0049  -10.3008  0.296078
56.0049  -10.4562  0.333795
56.0049  -10.5584  0.364375
56.0049  -10.6589  0.399916
56.0049  -10.7574  0.440934
56.0049  -10.8531  0.487926
56.0049  -10.9455  0.541326
56.0049  -11.0336  0.601406
56.0049  -11.0965  0.650911
56.0049  -11.1366  0.686016
56.0049  -11.194  0.741741
56.0049  -11.2652  0.821785
56.0049  -11.3307  0.908969
56.0049  -11.3909  1.00304
56.0049  -11.4454  1.10256
56.0049  -11.4939  1.20519
56.0049  -11.537  1.31022
56.0049  -11.5753  1.41707
56.0049  -11.625  1.57991
56.0049  -11.6789  1.8004
56.0049  -11.7398  2.13538
56.0049  -11.8142  2.81241
56.0049  -11.9305  5.10614
56.0049  -12.0982  8.78984
56.0049  -12.2611  12.4738
56.0049  -12.4197  16.1579
56.0049  -12.4973  18
1  2  2
2  3  3
3  4  4
4  5  5
5  6  6
6  7  7
7  8  8
8  9  9
9  10  10
11  12  12
12  13  13
13  14  14
14  15  15
15  16  16
16  17  17
17  18  18
18  19  19
19  20  20
20  21  21
21  22  22
22  23  23
23  24  24
24  25  25
25  26  26
26  27  27
27  28  28
28  29  29
29  30  30
30  31  31
31  32  32
32  33  33
33  34  34
34  35  35
35  36  36
36  37  37
37  38  38
38  39  39
39  40  40
40  41  41
41  42  42
42  43  43
43  44  44
44  45  45
46  47  47
47  48  48
48  49  49
49  50  50
50  51  51
51  52  52
52  53  53
53  54  54
54  55  55
55  56  56
56  57  57
57  58  58
58  59  59
59  60  60
60  61  61
61  62  62
62  63  63
63  64  64
64  65  65
65  66  66
66  67  67
67  68  68
68  69  69
69  70  70
70  71  71
71  72  72
72  73  73
73  74  74
74  75  75
75  76  76
76  77  77
77  78  78
78  79  79
 VARIABLES = X Y Z
 ZONE N = 79, E = 76, DATAPACKING= POINT, ZONETYPE= FETRIANGLE
64.0033  12.5  18
64.0033  10.9375  18
64.0033  7.8125  18
64.0033  4.6875  18
64.0033  1.5625  18
64.0033  -1.5625  18
64.0033  -4.6875  18
64.0033  -7.8125  18
64.0033  -10.9375  18
64.0033  -12.5  18
64.0033  8.89003e-16  0.0758027
64.0033  1.74259  0.0835503
64.0033  5.22776  0.0990377
64.0033  7.84164  0.110647
64.0033  9.14254  0.121247
64.0033  9.78176  0.163984
64.0033  10.0979  0.215089
64.0033  10.2537  0.252362
64.0033  10.3561  0.282626
64.0033  10.457  0.317845
64.0033  10.5558  0.358561
64.0033  10.652  0.405245
64.0033  10.7448  0.458293
64.0033  10.8335  0.517978
64.0033  10.9172  0.584408
64.0033  10.9763  0.638595
64.0033  11.0138  0.676721
64.0033  11.0498  0.716516
64.0033  11.0844  0.758146
64.0033  11.1338  0.82398
64.0033  11.1951  0.917859
64.0033  11.2507  1.0172
64.0033  11.3004  1.11968
64.0033  11.3447  1.2246
64.0033  11.3842  1.33139
64.0033  11.4357  1.49422
64.0033  11.5162  1.82614
64.0033  11.5902  2.27551
64.0033  11.6584  2.95548
64.0033  11.7949  5.23343
64.0033  12.0033  8.88064
64.0033  12.2057  12.5282
64.0033  12.4032  16.176
64.0033  12.5  18
64.0033  -1.77636e-15  0.0758027
64.0033  -1.74259  0.0835503
64.0033  -5.22776  0.0990377
64.0033  -7.84164  0.110647
64.0033  -9.14254  0.121247
64.0033  -9.67562  0.152404
64.0033  -9.88762  0.178043
64.0033  -10.0979  0.215089
64.0033  -10.2537  0.252362
64.0033  -10.3561  0.282626
64.0033  -10.457  0.317845
64.0033  -10.5558  0.358561
64.0033  -10.652  0.405245
64.0033  -10.7448  0.458293
64.0033  -10.8335  0.517978
64.0033  -10.9172  0.584408
64.0033  -10.9953  0.657463
64.0033  -11.0498  0.716516
64.0033  -11.0844  0.758146
64.0033  -11.1338  0.82398
64.0033  -11.1951  0.917859
64.0033  -11.2507  1.0172
64.0033  -11.3004  1.11968
64.0033  -11.3447  1.2246
64.0033  -11.3842  1.33139
64.0033  -11.4357  1.49422
64.0033  -11.4922  1.71482
64.0033  -11.5377  1.93795
64.0033  -11.5902  2.27551
64.0033  -11.6584  2.95548
64.0033  -11.7949  5.23343
64.0033  -12.0033  8.88064
64.0033  -12.2057  12.5282
64.0033  -12.4032  16.176
64.0033  -12.5  18
1  2  2
2  3  3
3  4  4
4  5  5
5  6  6
6  7  7
7  8  8
8  9  9
9  10  10
11  12  12
12  13  13
13  14  14
14  15  15
15  16  16
16  17  17
17  18  18
18  19  19
19  20  20
20  21  21
21  22  22
22  23  23
23  24  24
24  25  25
25  26  26
26  27  27
27  28  28
28  29  29
29  30  30
30  31  31
31  32  32
32  33  33
33  34  34
34  35  35
35  36  36
36  37  37
37  38  38
38  39  39
39  40  40
40  41  41
41  42  42
42  43  43
43  44  44
45  46  46
46  47  47
47  48  48
48  49  49
49  50  50
50  51  51
51  52  52
52  53  53
53  54  54
54  55  55
55  56  56
56  57  57
57  58  58
58  59  59
59  60  60
60  61  61
61  62  62
62  63  63
63  64  64
64  65  65
65  66  66
66  67  67
67  68  68
68  69  69
69  70  70
70  71  71
71  72  72
72  73  73
73  74  74
74  75  75
75  76  76
76  77  77
77  78  78
78  79  79
 VARIABLES = X Y Z
 ZONE N = 78, E = 75, DATAPACKING= POINT, ZONETYPE= FETRIANGLE
72.0016  12.5  18
72.0016  10.9375  18
72.0016  7.81249  18
72.0016  4.6875  18
72.0016  1.5625  18
72.0016  -1.5625  18
72.0016  -4.6875  18
72.0016  -7.81249  18
72.0016  -10.9375  18
72.0016  -12.5  18
72.0016  8.89334e-16  0.0311623
72.0016  1.70484  0.0450711
72.0016  5.11453  0.0728676
72.0016  7.6718  0.0936964
72.0016  8.73476  0.104154
72.0016  9.15256  0.119875
72.0016  9.46497  0.146293
72.0016  9.672  0.174878
72.0016  9.877  0.215495
72.0016  10.0284  0.255874
72.0016  10.1278  0.288406
72.0016  10.2254  0.32602
72.0016  10.3207  0.369173
72.0016  10.4131  0.418259
72.0016  10.5018  0.473576
72.0016  10.5862  0.535285
72.0016  10.6656  0.603364
72.0016  10.7395  0.67766
72.0016  10.8081  0.758833
72.0016  10.8718  0.847006
72.0016  10.9306  0.941795
72.0016  10.9838  1.04087
72.0016  11.0316  1.14271
72.0016  11.0942  1.29935
72.0016  11.1636  1.51324
72.0016  11.2445  1.84074
72.0016  11.3216  2.28389
72.0016  11.3979  2.95452
72.0016  11.5711  5.22946
72.0016  11.843  8.87771
72.0016  12.1089  12.5264
72.0016  12.3711  16.1754
72.0016  12.5  18
72.0016  -1.77636e-15  0.0311623
72.0016  -1.70484  0.0450711
72.0016  -5.11453  0.0728676
72.0016  -7.6718  0.0936964
72.0016  -8.73476  0.104154
72.0016  -9.15256  0.119875
72.0016  -9.46497  0.146293
72.0016  -9.672  0.174878
72.0016  -9.877  0.215495
72.0016  -10.0284  0.255874
72.0016  -10.1278  0.288406
72.0016  -10.2254  0.32602
72.0016  -10.3207  0.369173
72.0016  -10.4131  0.418259
72.0016  -10.5018  0.473576
72.0016  -10.5862  0.535285
72.0016  -10.6656  0.603364
72.0016  -10.7215  0.658475
72.0016  -10.7571  0.697286
72.0016  -10.8081  0.758833
72.0016  -10.8718  0.847006
72.0016  -10.9306  0.941795
72.0016  -10.9838  1.04087
72.0016  -11.0316  1.14271
72.0016  -11.0942  1.29935
72.0016  -11.1636  1.51324
72.0016  -11.2201  1.73094
72.0016  -11.2665  1.95101
72.0016  -11.3216  2.28389
72.0016  -11.3979  2.95452
72.0016  -11.5711  5.22946
72.0016  -11.843  8.87771
72.0016  -12.1089  12.5264
72.0016  -12.3711  16.1754
72.0016  -12.5  18
1  2  2
2  3  3
3  4  4
4  5  5
5  6  6
6  7  7
7  8  8
8  9  9
9  10  10
11  12  12
12  13  13
13  14  14
14  15  15
15  16  16
16  17  17
17  18  18
18  19  19
19  20  20
20  21  21
21  22  22
22  23  23
23  24  24
24  25  25
25  26  26
26  27  27
27  28  28
28  29  29
29  30  30
30  31  31
31  32  32
32  33  33
33  34  34
34  35  35
35  36  36
36  37  37
37  38  38
38  39  39
39  40  40
40  41  41
41  42  42
42  43  43
44  45  45
45  46  46
46  47  47
47  48  48
48  49  49
49  50  50
50  51  51
51  52  52
52  53  53
53  54  54
54  55  55
55  56  56
56  57  57
57  58  58
58  59  59
59  60  60
60  61  61
61  62  62
62  63  63
63  64  64
64  65  65
65  66  66
66  67  67
67  68  68
68  69  69
69  70  70
70  71  71
71  72  72
72  73  73
73  74  74
74  75  75
75  76  76
76  77  77
77  78  78
 VARIABLES = X Y Z
 ZONE N = 76, E = 73, DATAPACKING= POINT, ZONETYPE= FETRIANGLE
80  12.4999  18
80  10.9374  18
80  7.81246  18
80  4.68747  18
80  1.56249  18
80  -1.56249  18
80  -4.68747  18
80  -7.81246  18
80  -10.9374  18
80  -12.4999  18
80  8.78272e-16  0.0127461
80  1.68442  0.0349234
80  5.05325  0.0792308
80  7.57987  0.11242
80  8.63245  0.133709
80  8.94752  0.155339
80  9.15666  0.179525
80  9.36423  0.21472
80  9.51806  0.250341
80  9.61925  0.279361