 VARIABLES = X Y
 ZONE N = 10, E = 9, DATAPACKING= POINT, ZONETYPE= FETRIANGLE
0.2  3.2
0.2  3.01875
0.2  2.65625
0.2  2.29375
0.2  1.93125
0.2  1.56875
0.2  1.20625
0.2  0.84375
0.2  0.48125
0.2  0.3
1  2  1
2  3  2
3  4  3
4  5  4
5  6  5
6  7  6
7  8  7
8  9  8
9  10  9
 VARIABLES = X Y
 ZONE N = 10, E = 9, DATAPACKING= POINT, ZONETYPE= FETRIANGLE
0.2  0.3
0.305  0.3
0.515  0.3
0.725  0.3
0.935  0.3
1.145  0.3
1.355  0.3
1.565  0.3
1.775  0.3
1.88  0.3
1  2  1
2  3  2
3  4  3
4  5  4
5  6  5
6  7  6
7  8  7
8  9  8
9  10  9
 VARIABLES = X Y
 ZONE N = 10, E = 9, DATAPACKING= POINT, ZONETYPE= FETRIANGLE
1.88  0.3
1.88  0.48125
1.88  0.84375
1.88  1.20625
1.88  1.56875
1.88  1.93125
1.88  2.29375
1.88  2.65625
1.88  3.01875
1.88  3.2
1  2  1
2  3  2
3  4  3
4  5  4
5  6  5
6  7  6
7  8  7
8  9  8
9  10  9
 VARIABLES = X Y
 ZONE N = 10, E = 9, DATAPACKING= POINT, ZONETYPE= FETRIANGLE
1.88  3.2
1.775  3.2
1.565  3.2
1.355  3.2
1.145  3.2
0.935  3.2
0.725  3.2
0.515  3.2
0.305  3.2
0.2  3.2
1  2  1
2  3  2
3  4  3
4  5  4
5  6  5
6  7  6
7  8  7
8  9  8
9  10  9
