 VARIABLES = X Y
 ZONE N = 10, E = 9, DATAPACKING= POINT, ZONETYPE= FETRIANGLE
0.6  0.84
0.56875  0.84
0.50625  0.84
0.44375  0.84
0.38125  0.84
0.31875  0.84
0.25625  0.84
0.19375  0.84
0.13125  0.84
0.1  0.84
1  2  1
2  3  2
3  4  3
4  5  4
5  6  5
6  7  6
7  8  7
8  9  8
9  10  9
 VARIABLES = X Y
 ZONE N = 10, E = 9, DATAPACKING= POINT, ZONETYPE= FETRIANGLE
0.1  0.84
0.1  0.76875
0.1  0.62625
0.1  0.48375
0.1  0.34125
0.1  0.19875
0.1  0.05625
0.1  -0.08625
0.1  -0.22875
0.1  -0.3
1  2  1
2  3  2
3  4  3
4  5  4
5  6  5
6  7  6
7  8  7
8  9  8
9  10  9
 VARIABLES = X Y
 ZONE N = 10, E = 9, DATAPACKING= POINT, ZONETYPE= FETRIANGLE
0.1  -0.3
0.158125  -0.3
0.274375  -0.3
0.390625  -0.3
0.506875  -0.3
0.623125  -0.3
0.739375  -0.3
0.855625  -0.3
0.971875  -0.3
1.03  -0.3
1  2  1
2  3  2
3  4  3
4  5  4
5  6  5
6  7  6
7  8  7
8  9  8
9  10  9
 VARIABLES = X Y
 ZONE N = 10, E = 9, DATAPACKING= POINT, ZONETYPE= FETRIANGLE
1.03  -0.3
1.03  -0.26875
1.03  -0.20625
1.03  -0.14375
1.03  -0.08125
1.03  -0.01875
1.03  0.04375
1.03  0.10625
1.03  0.16875
1.03  0.2
1  2  1
2  3  2
3  4  3
4  5  4
5  6  5
6  7  6
7  8  7
8  9  8
9  10  9
 VARIABLES = X Y
 ZONE N = 10, E = 9, DATAPACKING= POINT, ZONETYPE= FETRIANGLE
1.03  0.2
1.06125  0.2
1.12375  0.2
1.18625  0.2
1.24875  0.2
1.31125  0.2
1.37375  0.2
1.43625  0.2
1.49875  0.2
1.53  0.2
1  2  1
2  3  2
3  4  3
4  5  4
5  6  5
6  7  6
7  8  7
8  9  8
9  10  9
 VARIABLES = X Y
 ZONE N = 10, E = 9, DATAPACKING= POINT, ZONETYPE= FETRIANGLE
1.53  0.2
1.53  0.27125
1.53  0.41375
1.53  0.55625
1.53  0.69875
1.53  0.84125
1.53  0.98375
1.53  1.12625
1.53  1.26875
1.53  1.34
1  2  1
2  3  2
3  4  3
4  5  4
5  6  5
6  7  6
7  8  7
8  9  8
9  10  9
 VARIABLES = X Y
 ZONE N = 10, E = 9, DATAPACKING= POINT, ZONETYPE= FETRIANGLE
1.53  1.34
1.47188  1.34
1.35563  1.34
1.23937  1.34
1.12312  1.34
1.00687  1.34
0.890625  1.34
0.774375  1.34
0.658125  1.34
0.6  1.34
1  2  1
2  3  2
3  4  3
4  5  4
5  6  5
6  7  6
7  8  7
8  9  8
9  10  9
 VARIABLES = X Y
 ZONE N = 10, E = 9, DATAPACKING= POINT, ZONETYPE= FETRIANGLE
0.6  1.34
0.6  1.30875
0.6  1.24625
0.6  1.18375
0.6  1.12125
0.6  1.05875
0.6  0.99625
0.6  0.93375
0.6  0.87125
0.6  0.84
1  2  1
2  3  2
3  4  3
4  5  4
5  6  5
6  7  6
7  8  7
8  9  8
9  10  9
