 VARIABLES = X Y
 ZONE N = 10, E = 9, DATAPACKING= POINT, ZONETYPE= FETRIANGLE
0  0
0.0606339  -0.0151585
0.181902  -0.0454754
0.30317  -0.0757924
0.424437  -0.106109
0.545705  -0.136426
0.666973  -0.166743
0.788241  -0.19706
0.909509  -0.227377
0.970143  -0.242536
1  2  1
2  3  2
3  4  3
4  5  4
5  6  5
6  7  6
7  8  7
8  9  8
9  10  9
 VARIABLES = X Y
 ZONE N = 10, E = 9, DATAPACKING= POINT, ZONETYPE= FETRIANGLE
0.970143  -0.242536
0.97469  -0.224345
0.983785  -0.187965
0.99288  -0.151585
1.00198  -0.115204
1.01107  -0.0788241
1.02017  -0.0424437
1.02926  -0.00606339
1.03836  0.030317
1.0429  0.0485071
1  2  1
2  3  2
3  4  3
4  5  4
5  6  5
6  7  6
7  8  7
8  9  8
9  10  9
 VARIABLES = X Y
 ZONE N = 10, E = 9, DATAPACKING= POINT, ZONETYPE= FETRIANGLE
1.0429  0.0485071
0.982269  0.0636656
0.861001  0.0939826
0.739734  0.1243
0.618466  0.154616
0.497198  0.184933
0.37593  0.21525
0.254662  0.245567
0.133395  0.275884
0.0727607  0.291043
1  2  1
2  3  2
3  4  3
4  5  4
5  6  5
6  7  6
7  8  7
8  9  8
9  10  9
 VARIABLES = X Y
 ZONE N = 10, E = 9, DATAPACKING= POINT, ZONETYPE= FETRIANGLE
0.0727607  0.291043
0.0682131  0.272853
0.0591181  0.236472
0.050023  0.200092
0.0409279  0.163712
0.0318328  0.127331
0.0227377  0.0909509
0.0136426  0.0545705
0.00454754  0.0181902
0  0
1  2  1
2  3  2
3  4  3
4  5  4
5  6  5
6  7  6
7  8  7
8  9  8
9  10  9
