 VARIABLES = X Y Z
 ZONE N = 50, E = 78, DATAPACKING= POINT, ZONETYPE= FETRIANGLE
-6000  0  11300
5750  0  9384.52
-753.973  0  10561.8
2742.77  0  10065.2
4144.86  0  9832.46
4958.19  0  9645.85
-6000  12000  12665.2
-6000  2462.05  11392.3
-6000  4919.2  11573.2
-6000  7710.99  11870.1
-6000  9543.27  12121.6
-6000  10780.9  12350.8
-6000  11405.5  12498.6
5750  12000  11207.5
5750  838.555  9595.86
5750  1976.01  9788.27
5750  4309.46  10071.1
5750  7941.65  10493.5
5750  10067.3  10812.7
5750  11037.4  10992
-2633.2  2003.2  10956
-764.573  2001.05  10714.2
-2637.22  4339.87  11126.3
-769.907  4336.88  10899.1
2410.29  1998.72  10290.4
-2642.44  7708.14  11458.1
4088.85  1995.7  10052.7
2403.46  4332.52  10505.5
-2643.26  9540.51  11712.2
-776.242  7705.25  11235.1
4940.87  1989.65  9919.95
-2642.82  10778.6  11943.9
4082.3  4328.39  10290.7
-777.336  9537.52  11491.8
-2642.49  11404.1  12090.1
4936.34  4321.96  10179
-777.145  10776.2  11721.4
2396.82  7699.72  10859.6
-777.161  11402.7  11863.1
4076.38  7695.53  10659.9
2394.76  9532.32  11117.2
4931.84  7690.87  10557.9
2394.07  10772.5  11340.2
4074.14  9528.79  10919.9
2393.56  11400.6  11474.6
4929.86  9525.66  10818.7
4072.84  10770.6  11137.9
4072.1  11399.8  11268.6
4928.43  10769.3  11033.4
4927.72  11399.6  11162.2
32  11  12
32  29  11
33  27  25
33  25  28
34  26  29
34  30  26
35  12  13
35  13  7
35  32  12
36  17  16
36  16  31
36  27  33
36  31  27
37  29  32
37  34  29
38  28  30
39  7  14
39  35  7
39  32  35
39  37  32
15  2  6
40  33  28
40  28  38
41  30  34
41  38  30
42  18  17
42  17  36
42  36  33
42  33  40
43  41  34
43  34  37
43  37  39
44  40  38
44  38  41
45  43  39
45  39  14
46  42  40
46  19  18
46  18  42
46  40  44
47  44  41
47  41  43
48  45  14
48  47  43
21  3  1
48  43  45
21  1  8
49  46  44
49  20  19
49  19  46
49  44  47
50  48  14
50  47  48
22  3  21
50  14  20
50  49  47
50  20  49
23  8  9
23  21  8
24  21  23
24  22  21
25  4  3
25  22  24
25  3  22
26  9  10
26  24  23
26  23  9
27  5  4
27  4  25
28  25  24
29  10  11
29  26  10
30  28  24
30  24  26
31  6  5
31  16  15
31  15  6
31  5  27
 VARIABLES = X Y Z
 ZONE N = 13, E = 11, DATAPACKING= POINT, ZONETYPE= FETRIANGLE
8008.6  819.797  4000
6900  766.427  4000
8008.6  227.54  5028.92
8008.6  719.419  4392.65
8008.6  587.89  4627.93
8008.6  403.367  4825.16
6900  0  5028.92
7418.39  120.327  5029.2
6900  727.009  4300.68
6900  631.621  4525.92
6900  469.066  4708.97
6900  226.683  4858.79
6900  92.7275  4942.42
9  2  1
9  1  4
10  4  5
10  9  4
11  10  5
8  5  6
8  6  3
8  11  5
12  11  8
13  12  8
7  13  8
 VARIABLES = X Y Z
 ZONE N = 32, E = 46, DATAPACKING= POINT, ZONETYPE= FETRIANGLE
6900  0  5028.92
6900  766.427  4000
6900  161.345  4896.29
6900  437.551  4733.14
6900  592.772  4581.65
6900  708.237  4365.46
6900  749.148  4184.68
5112.8  0  4850.5
6484.34  0  4907.04
6170.22  0  4865.6
5800.2  0  4850.69
5112.8  734.719  4000
5112.8  262.592  4802.51
5112.8  491.25  4664.79
5112.8  656.69  4454.6
5112.8  731.893  4233.51
6479.88  270.894  4809.98
6477.64  499.303  4669.96
6165.92  276.973  4792.73
6475.52  663.597  4458
6163.89  502.326  4657.15
5884.44  280.438  4793.75
6473.45  736.703  4234.73
5627.27  273.531  4795.36
6162.02  662.464  4448.51
5882.93  505.618  4659.07
6160.17  732.884  4228.82
5626.2  501.012  4660.91
5881.68  663.133  4449.12
5880.41  732.006  4228.83
5625.39  660.629  4450.77
5624.6  730.128  4229.32
31  29  26
32  16  12
32  12  30
32  31  16
32  30  29
32  29  31
9  3  1
17  4  3
17  3  9
18  5  4
18  4  17
19  9  10
19  17  9
20  6  5
20  5  18
21  17  19
21  18  17
22  10  11
22  19  10
22  21  19
23  7  6
23  2  7
23  6  20
24  11  8
24  8  13
24  22  11
25  18  21
25  20  18
26  25  21
26  21  22
27  2  23
27  23  20
27  20  25
28  13  14
28  24  13
28  22  24
28  26  22
29  25  26
30  12  2
30  2  27
30  27  25
30  25  29
31  14  15
31  15  16
31  28  14
31  26  28
 VARIABLES = X Y Z
 ZONE N = 74, E = 122, DATAPACKING= POINT, ZONETYPE= FETRIANGLE
5750  12000  11207.5
-6000  12000  12665.2
5750  16100  15399.3
5750  12923.7  11483.5
5750  13646.6  11778.7
5750  14280.1  12125.5
5750  14802.3  12506.5
5750  15212.6  12908.6
5750  15554  13373.8
5750  15829.1  13910.3
5750  15996.3  14419.7
5750  16077.2  14906
-6000  16100  17200
2165.48  16100  15973.1
-122.016  16100  16318.9
-6000  12870.6  12969.6
-6000  13623.8  13317.8
-6000  14261.7  13704.4
-6000  14783.5  14117.6
-6000  15220.7  14567.2
-6000  15584.2  15059.9
-6000  15832.3  15536.5
-6000  16004.4  16071.7
-6000  16083.9  16632.6
2392.8  12931.1  11915.7
2392.53  13662.9  12223.2
2392.28  14303  12581.8
714.258  12934.4  12132.5
2392.42  14826.6  12975.5
713.903  13668.7  12446.8
2392.85  15236.6  13389.2
713.487  14310.5  12811.1
2393.49  15578.9  13864.7
-964.291  12937.6  12349.5
713.823  14832.2  13212.2
2394.36  15850.6  14414
-964.672  13671.9  12671
714.394  15241.2  13631.4
2395.21  16009.6  14936.9
-965.129  14313.3  13042
2395.93  16081.7  15434.6
714.72  15587.4  14107.4
-965.216  14836.9  13446.1
715.763  15857.8  14661.4
-964.973  15247.6  13867.4
717.039  16010.8  15191.1
717.46  16081.1  15689.8
-964.434  15592.7  14347.9
-4320.94  12939.6  12786.4
-963.207  15860.9  14906.7
-4321.35  13674.9  13122.7
-962.076  16012.2  15439.1
-4321.69  14315.1  13508.4
-961.92  16081.5  15939.2
-4321.9  14837.6  13923.8
-4321.8  15248.6  14352.8
-4321.09  15594.3  14840.5
-4319.85  15861.5  15406.2
-4319.23  16011.3  15942.6
-4319.98  16080.9  16442.6
297.647  16081.1  15752.3
-542.092  16081.5  15876.7
507.144  16006.3  15200.6
87.3584  16006.7  15262.5
157.558  16039.1  15425.2
-262.831  15966.6  15141.9
-752.248  16007.7  15386.1
389.066  15826.4  14626.1
225.714  15809.9  14608.7
-171.087  15744.6  14518.2
-613.796  15811.6  14730.8
271.494  15517.2  14057.7
-140.669  15432.2  13991
-568.159  15520.2  14177.1
57  21  56
35  32  27
57  56  45
57  45  48
58  48  50
58  23  22
35  27  29
36  9  10
58  57  48
58  22  57
59  23  58
36  33  9
59  24  23
59  50  52
59  58  50
60  15  13
60  13  24
60  52  54
37  28  30
60  59  52
60  24  59
37  34  28
60  54  15
61  47  15
38  29  31
38  35  29
62  61  15
39  10  11
62  15  54
63  47  61
39  36  10
63  46  47
63  44  46
40  30  32
40  37  30
41  11  12
65  61  62
41  12  3
65  63  61
41  3  14
65  64  63
41  39  11
42  31  33
42  38  31
66  65  62
66  64  65
67  52  50
67  54  52
67  62  54
43  40  32
67  66  62
43  32  35
68  44  63
68  63  64
68  42  44
44  33  36
69  64  66
44  42  33
69  68  64
70  69  66
71  50  48
71  67  50
71  66  67
46  44  36
71  70  66
72  68  69
46  36  39
72  42  68
72  69  70
72  38  42
47  46  39
25  1  4
47  14  15
47  41  14
47  39  41
73  43  35
73  35  38
73  38  72
73  72  70
73  45  43
74  71  48
26  4  5
74  70  71
74  73  70
74  48  45
74  45  73
49  16  2
49  17  16
26  25  4
49  2  34
27  5  6
27  26  5
51  18  17
28  1  25
51  49  34
51  17  49
51  34  37
29  6  7
29  27  6
53  19  18
30  25  26
53  18  51
30  28  25
53  51  37
31  7  8
53  37  40
31  29  7
55  20  19
55  19  53
32  26  27
32  30  26
55  53  40
55  40  43
33  8  9
56  21  20
33  31  8
34  2  1
56  55  43
56  20  55
56  43  45
57  22  21
34  1  28
 VARIABLES = X Y Z
 ZONE N = 28, E = 48, DATAPACKING= POINT, ZONETYPE= FETRIANGLE
5750  16100  15399.3
-6000  16100  17200
2165.48  16100  15973.1
-122.016  16100  16318.9
5750  16100  17200
-6000  16100  17200
2395.39  16100  16297.7
2394.38  16100  16658.6
716.837  16100  16481.5
715.817  16100  16768.9
-962.592  16100  16659.7
-963.269  16100  16875.8
-4320.84  16100  17020.1
-4321.08  16100  17092
-4321.31  16100  17164
4072.78  16100  15885.9
4072.56  16100  16104.9
4071.77  16100  16871.5
3232.71  16100  16900.5
1440.77  16100  16403.5
714.541  16100  17128.2
-2221.66  16100  16713.9
-1803.01  16100  17019.9
-2641.91  16100  16912.1
-2642.38  16100  17056.1
-5160.42  16100  17110
-5160.63  16100  17173
4910.98  16100  16604.6
8  3  7
9  4  3
10  4  9
12  11  4
16  3  1
16  7  3
19  8  7
19  7  16
19  16  17
19  18  5
19  17  18
20  3  8
20  10  9
20  9  3
21  5  6
21  4  10
21  8  19
21  20  8
21  6  15
21  12  4
21  19  5
21  10  20
22  2  4
22  13  2
22  4  11
23  22  11
23  11  12
23  21  15
23  12  21
24  14  13
24  13  22
25  22  23
25  15  14
25  14  24
25  23  15
25  24  22
26  6  2
26  2  13
26  13  14
27  15  6
27  6  26
27  14  15
27  26  14
28  1  5
28  16  1
28  17  16
28  5  18
28  18  17
 VARIABLES = X Y Z
 ZONE N = 56, E = 90, DATAPACKING= POINT, ZONETYPE= FETRIANGLE
5750  0  9384.52
8008.6  1776.74  9384.52
5886.5  222.696  9384.5
6134.62  449.3  9384.5
6941.43  1005.59  9384.5
8008.6  0  6775
6359.08  0  9093.83
6864.79  0  8757.55
7280.66  0  8382.54
7614.6  0  7971.6
7841.47  0  7560.88
7965.68  0  7176.48
8008.6  0  6775
8008.59  1154.35  9209.39
8008.59  621.289  8970.18
8008.59  394.491  8808.6
8008.59  222.928  8596.09
8008.59  101.637  8302.62
8008.59  57.2294  8035.3
8008.59  28.8994  7540.27
6553.39  193.309  9130.79
6797.05  348.182  9147.38
7246.97  619.637  9170.48
7014.74  83.4012  8818.51
7532.33  806.328  9181.43
7189.42  154.701  8850.67
7498.54  294.116  8891.39
7690.76  396.655  8912.03
6116.7  88.7686  9258.67
6830.26  636.01  9282.49
6696.86  69.9154  8965.47
7266.27  928.803  9290.1
6891.18  196.749  8997.86
7722.75  1247.94  9297.39
7191.06  346.55  9029.04
7208.1  42.4322  8642.72
7496.34  523.938  9051.57
7290.69  100.288  8737.02
7339.14  78.2101  8674.53
7811.98  738.3  9084.88
7599.3  133.999  8658.64
7646.73  83.7763  8516.71
7801.41  277.494  8763.56
7697  55.7065  8380.66
7879.34  313.751  8774.99
7776.67  28.0711  8144.51
7876.55  14.3303  7799.38
7961.76  10.1626  7360.52
6449.6  388.277  9274.48
6457.46  256.489  9205.99
7292.14  26.6874  8542.75
7500.75  27.1758  8408.42
7625.96  12.6844  8186.48
7761.25  6.44738  7905.31
7467.13  7.9233  8305.73
7887.51  8.7344  7640.21
37  25  23
37  35  27
37  27  28
37  23  35
38  27  26
38  26  24
38  24  36
39  38  36
40  15  14
40  14  25
40  25  37
40  28  15
40  37  28
41  27  38
41  38  39
42  41  39
43  41  42
43  28  27
43  42  17
43  27  41
44  18  17
44  17  42
45  43  17
45  28  43
45  16  15
45  17  16
45  15  28
46  19  18
46  18  44
47  20  19
47  19  46
48  12  6
48  6  13
48  20  47
48  13  20
49  4  3
49  3  29
49  30  4
49  22  30
50  22  49
50  7  21
50  29  7
50  49  29
50  21  22
51  36  9
51  39  36
52  42  39
52  44  42
52  39  51
53  46  44
53  44  52
54  10  11
54  47  46
54  46  53
54  53  10
55  9  10
55  52  51
55  53  52
55  51  9
55  10  53
56  54  11
56  11  12
56  48  47
56  12  48
56  47  54
29  3  1
29  1  7
30  5  4
30  22  23
31  7  8
31  8  24
31  21  7
32  23  25
32  5  30
32  30  23
33  31  24
33  22  21
33  24  26
33  21  31
34  2  5
34  14  2
34  5  32
34  25  14
34  32  25
35  23  22
35  26  27
35  22  33
35  33  26
36  8  9
36  24  8
 VARIABLES = X Y Z
 ZONE N = 46, E = 73, DATAPACKING= POINT, ZONETYPE= FETRIANGLE
5750  0  9384.52
8008.6  1776.74  9384.52
6017.43  319.871  9384.52
6361.99  609.566  9384.52
7009.02  1051.11  9384.52
5750  12000  11207.5
5750  905.644  9608.13
5750  2131.17  9811.57
5750  4418.45  10082.8
5750  8165.26  10523.7
5750  10302.1  10851.2
5750  11154.5  11012.7
8008.6  12000  10935.1
8008.6  2949.09  9590.79
8008.6  7946.25  10223.3
8008.6  10357.6  10596.6
8008.6  11181.9  10751.2
6027.08  1651.78  9694.67
6373.35  1910.92  9679.88
7014.25  2303.55  9640.84
7348.04  2515.32  9623
6044.63  4633.84  10068.4
6394.27  4819.95  10044.2
7024.64  5094.47  9994.3
7353.89  5243.88  9969.05
6064.44  8279.22  10502
6417.46  8373.66  10473.2
7035.88  8508.91  10419.1
7360.45  8583.32  10391.4
6071.31  10353.1  10822.9
6425.4  10394.9  10788.4
6072.54  11179.6  10980.7
7039.74  10453.9  10727
6426.77  11200.5  10942
7362.74  10486.6  10694.9
7040.41  11229.7  10875.8
7363.13  11245.9  10840.8
6040.25  1440.66  9654.82
6688.2  1467.81  9540.49
6343.54  2255.76  9738.98
6052.71  3528.5  9941.22
6353.86  3714  9922.71
7213.44  8131  10344.6
6034.41  2959.58  9877.23
6626.82  6456.17  10202.3
6170.88  5496.48  10149.9
37  13  17
37  17  35
37  35  33
37  36  13
37  33  36
38  3  7
38  7  18
38  18  19
39  4  3
39  5  4
39  19  20
39  3  38
39  21  5
39  20  21
7  3  1
39  38  19
40  20  19
40  18  8
40  19  18
41  8  9
41  9  22
42  22  23
42  25  21
42  20  40
42  23  24
42  21  20
42  24  25
42  41  22
43  27  28
43  29  15
43  28  29
44  41  42
44  40  8
44  8  41
44  42  40
45  27  43
45  10  26
45  15  25
45  25  24
45  43  15
45  26  27
46  9  10
46  23  22
46  24  23
46  22  9
46  45  24
46  10  45
18  7  8
21  2  5
21  14  2
25  15  14
25  14  21
26  10  11
29  16  15
30  26  11
31  27  26
31  26  30
32  11  12
32  12  6
32  30  11
32  31  30
33  28  27
33  27  31
34  32  6
34  31  32
35  17  16
35  28  33
35  16  29
35  29  28
36  6  13
36  34  6
36  33  31
36  31  34
 VARIABLES = X Y Z
 ZONE N = 22, E = 20, DATAPACKING= POINT, ZONETYPE= FETRIANGLE
8008.6  12000  10935.1
5750  12000  11207.5
8008.6  16100  15041.8
8008.6  12925  11201
8008.6  13649.2  11488.9
8008.6  14281.9  11829.2
8008.6  14804.2  12204.6
8008.6  15217.6  12603.9
8008.6  15565.8  13071.3
8008.6  15808.5  13536.4
8008.6  15992.9  14089.6
8008.6  16074.8  14562.3
5750  16100  15399.3
5750  12923.7  11483.5
5750  13646.6  11778.7
5750  14280.1  12125.5
5750  14802.3  12506.5
5750  15212.6  12908.6
5750  15554  13373.8
5750  15829.1  13910.3
5750  15996.3  14419.7
5750  16077.2  14906
14  2  1
14  1  4
15  4  5
15  14  4
16  5  6
16  15  5
17  6  7
17  16  6
18  7  8
18  17  7
19  8  9
19  18  8
20  9  10
20  10  11
20  19  9
21  20  11
22  11  12
22  21  11
13  12  3
13  22  12
 VARIABLES = X Y Z
 ZONE N = 11, E = 16, DATAPACKING= POINT, ZONETYPE= FETRIANGLE
8008.6  16100  17200
5750  16100  17200
8008.6  16100  15041.8
5750  16100  15399.3
7363.27  16100  16612.4
7363.25  16100  16024.9
6717.95  16100  16641.6
6717.93  16100  16083.2
6072.65  16100  16670.9
6072.64  16100  16141.7
6072.63  16099.8  15612.6
6  1  3
6  5  1
7  2  1
7  1  5
8  7  5
8  6  3
8  5  6
9  2  7
10  4  2
10  7  8
10  2  9
10  9  7
11  3  4
11  8  3
11  4  10
11  10  8
 VARIABLES = X Y Z
 ZONE N = 89, E = 156, DATAPACKING= POINT, ZONETYPE= FETRIANGLE
8008.6  819.797  4000
8008.6  0  1834.79
8008.59  960.991  3182.22
8008.59  977.063  2767.27
8008.59  936.013  2472.49
8008.59  826.094  2234.89
8008.59  626.003  2020.54
8008.59  395.208  1893.61
8008.59  200.474  1846.94
5112.8  734.719  4000
6639.16  757.942  4000
5112.8  0  3365.3
5112.8  648.943  3746.89
5112.8  479.122  3540.55
5112.8  255.083  3410.49
7394.21  0  2249.09
6606.47  0  2846.63
6124.27  0  3125.44
5654.44  0  3301.02
5385.91  0  3352.23
7331.78  821.441  3675.17
7335.28  834.053  3511.47
7794.36  785.024  2291.32
7794.44  664.866  2161.32
7355.65  836.353  2927.43
7689.1  678.293  2236.79
7795.79  514.063  2064.6
7689.91  567.327  2154.04
7797.67  342.052  2002.57
7691.34  454.517  2099.51
7693.34  317.481  2060.1
7039.49  750.614  3039.3
7695.05  189.155  2041.88
6632.32  648.687  3226.98
6896.69  560.707  2847.71
5890.52  722.253  3852.05
6395.39  603.946  3318.44
5904.31  686.461  3706.86
6471.84  456.662  3097.69
5642.58  673.747  3729.93
5982.3  555.614  3434.95
5624.34  266.178  3356.43
7677.78  920.101  3024.76
7936.85  928.741  2494.37
7901.29  923.531  2506.34
6988.8  778.072  3860.18
7717.38  900.732  2648.83
6992.24  781.61  3790
7574.92  838.779  2614.4
7612.61  805.129  2480.1
7184.94  818.419  3254.17
7523.41  803.095  2577.33
6847.65  763.546  3564.65
7311.72  724.489  2655.11
6637.4  738.954  3606.26
7588.48  425.508  2156.49
7123.88  721.169  2858.13
7539.05  349.39  2170.87
6517.91  726.975  3627.88
6275.19  733.15  3830.11
7540.3  280.526  2157.04
7541.38  218.802  2148.79
7324.51  452.481  2384.67
6556.6  710.195  3496.39
6315.68  709.952  3658.81
7149.03  335.348  2492.02
6971.92  199.091  2600.96
6756.12  265.308  2788.68
6663.37  338.879  2888.04
6544.48  228.271  2934.22
6200.97  342.161  3182.02
6306.25  200.495  3073.45
6060.47  293.622  3223.22
5806.58  428.496  3373.69
5917.53  284.166  3274.27
7598.45  670.518  2295.06
7553.77  664.284  2325.7
7384.72  684.795  2513.75
7421.08  659.162  2444.76
7475.92  598.375  2336.03
7317.36  611.24  2499.57
7194  624.479  2637.26
7228.56  554.326  2537.36
7260.58  523.302  2484.4
7136.02  569.337  2637.36
7056.67  567.301  2708.94
7360.09  232.83  2289.38
6935.07  397.993  2697.21
5722.59  584.506  3538.14
72  70  39
72  39  71
73  71  41
39  35  34
39  34  37
73  18  72
40  10  13
73  72  71
40  13  14
74  14  42
40  36  10
74  73  41
40  38  36
75  19  18
75  42  19
75  18  73
75  73  74
75  74  42
76  56  28
76  26  50
42  14  15
76  28  26
42  20  19
42  15  20
77  76  50
43  4  3
43  3  21
77  56  76
77  50  52
43  22  25
43  21  22
78  52  54
44  5  4
44  6  5
79  77  52
79  52  78
45  6  44
80  56  77
45  23  6
80  79  63
80  58  56
45  44  4
80  63  58
46  1  11
80  77  79
46  21  1
81  78  54
81  79  78
81  63  79
47  23  45
82  81  54
47  45  4
47  4  43
82  54  57
48  21  46
48  22  21
83  81  82
48  46  11
84  63  81
49  43  25
84  81  83
49  47  43
84  83  66
84  66  63
85  83  82
85  66  83
86  85  82
50  23  47
86  82  57
50  47  49
86  66  85
86  57  35
50  26  23
87  63  66
51  22  48
87  66  16
87  61  58
51  25  22
87  62  61
51  32  25
87  16  62
52  49  25
87  58  63
88  66  86
52  50  49
88  86  35
88  67  66
88  68  67
88  69  68
88  35  69
89  14  74
53  48  11
89  40  14
53  51  48
89  38  40
53  32  51
89  74  41
12  20  15
89  41  38
53  34  32
21  3  1
54  52  25
55  53  11
56  30  28
56  31  30
24  7  6
57  54  25
24  6  23
57  25  32
57  32  35
59  55  11
26  24  23
60  59  11
60  11  36
27  8  7
60  36  38
61  31  56
61  56  58
27  7  24
62  31  61
28  27  24
62  16  33
28  24  26
62  33  31
29  9  8
29  2  9
29  8  27
30  27  28
64  53  55
30  29  27
64  34  53
64  55  59
64  37  34
31  29  30
65  59  60
65  60  38
65  64  59
65  37  64
65  41  37
65  38  41
33  16  2
33  2  29
33  29  31
67  17  16
67  16  66
68  17  67
35  32  34
36  11  10
69  35  39
70  17  68
70  68  69
70  69  39
71  39  37
71  37  41
72  18  17
72  17  70
 VARIABLES = X Y Z
 ZONE N = 20, E = 26, DATAPACKING= POINT, ZONETYPE= FETRIANGLE
6900  0  5028.92
8008.6  227.54  5028.92
7418.39  120.327  5029.2
8008.6  0  6775
7191.04  0  5184.43
7447.28  0  5392.67
7700.07  0  5708.7
7883.45  0  6088.51
7975.8  0  6426.38
8008.6  0  6775
8008.6  167.88  5210.57
8008.6  45.0372  5988.73
7423.4  48.8881  5211.86
7574.01  78.3579  5229.91
7774.02  114.605  5254.53
7817.84  37.5914  5683.69
7952.21  11.9414  6181.72
7854.3  90.2287  5451.43
7859.43  9.92841  5946.41
7958.11  67.058  5716.87
11  2  3
10  9  4
13  3  1
13  1  5
13  5  6
14  3  13
15  11  3
15  3  14
16  6  7
17  8  9
17  10  12
17  9  10
18  11  15
18  15  14
18  13  6
18  6  16
18  14  13
19  7  8
19  17  12
19  8  17
19  16  7
19  12  16
20  12  11
20  18  16
20  11  18
20  16  12
 VARIABLES = X Y Z
 ZONE N = 251, E = 468, DATAPACKING= POINT, ZONETYPE= FETRIANGLE
8008.6  0  1834.79
17250  0  0
8911.75  0  1332.73
9761.43  0  955.851
10739.9  0  622.478
11850  0  340.223
12982  0  130.039
13983.2  0  25.4069
14677.4  0  -2.64952
15616.2  0  -2.01968
8008.6  819.797  4000
8008.59  278.85  1860.61
8008.59  538.463  1961.3
8008.59  760.873  2148.54
8008.59  900.865  2373.11
8008.59  969.084  2649.47
8008.59  974.004  3014.3
8008.59  916.338  3509.91
17250  1953.86  4000
10182.4  987.708  4000
12348.7  1234.04  4000
14801.7  1577.77  4000
17250  329.308  40.4377
17250  643.177  152.345
17250  1046.91  386.569
17250  1374.06  670.822
17250  1639.66  1006.72
17250  1848.18  1418.85
17250  1993.11  1907.92
17250  2076.7  2475
17250  2083.4  2837.05
17250  2054.9  3240.03
8299.39  267.061  1686.78
8449.43  266.89  1606.44
8304.22  453.247  1758.23
8453.27  412.414  1659.81
8882.16  282.33  1402.17
8871.81  430.635  1469.67
8592.69  633.602  1751.88
8881.07  561.364  1553.58
8603.32  783.959  1904.83
8892.07  691.925  1666.31
9300.23  1128.03  2244.89
8707.54  1061.58  3079.69
10220.7  991.972  1437.15
8715.45  1015.75  3415.6
9960.97  1199.46  2080.39
9062.88  1102.07  3148.06
9070.57  1064.01  3374.04
10454.9  1245.82  1981.52
9082.62  987.605  3684.47
11642  1063.92  1144.1
11535.7  1343.7  1805.16
11078.3  1378.2  2557.42
12391  1086.69  1033.46
12092.5  1390.84  1732.1
12654.4  1435.19  1669.68
13935.6  1148.75  882.98
14496  1186.18  852.879
13902  1532.31  1576.07
13372.3  1618.62  2378.85
14397.1  1574.81  1554.81
15861.5  676.891  263.642
16442  251.024  77.4845
14738.6  1606.88  1544.2
16442.9  468.666  150.557
15979  1016.09  483.888
16712.9  262.286  71.4989
16442.5  674.099  236.274
16442.5  864.421  339.185
16443  1054.5  470.058
16712.3  797.32  282.45
15575.8  1685.86  1502.46
16712.1  1042.77  436.752
16712.5  1269.04  627.65
16012  1921.44  2707.36
16422.9  1969.37  2440.7
16014.9  1907.4  2960.28
16017.9  1878.33  3243.81
16425.7  1970.81  2799.81
16019.7  1855.33  3421.67
16428  1949.71  3109.61
9168.68  341.618  1300.09
9318.66  292.397  1220.62
8207.87  915.513  2305.88
8307.3  924.703  2271.83
8930.84  909.5  1904.94
8633.7  994.545  2244.02
9617.22  537.368  1229.84
8946.43  992.881  2037.2
9095.47  971.33  1914.31
9545.43  777.409  1456.08
9992.18  513.826  1084.01
9548.81  841.244  1522.95
10242.2  339.354  911.628
9466.46  983.523  1747.63
10483.7  527.825  937.566
9759.31  1100.85  1836.84
9826.19  1139.99  1914.09
9182.58  1141.74  2700.83
9441.66  1171.94  2500.61
10091.1  1126.92  1750.23
10866.2  727.537  960.388
11192.1  552.454  755.6
11412.2  366.116  594.956
9512.62  1188.36  2632.33
10212  1171.25  1822.53
10337.7  1145.79  1694.21
10769.6  1134.18  1502.24
11748.9  566.159  636.55
9728.83  1196.13  3049.37
11046.2  1196.52  1553.69
12123.7  567.486  568.428
10516.7  1302.01  2294
11962.8  753.253  739.477
12411.2  367.704  399.418
11209.4  1248.64  1632.79
10064  1239.32  3005.22
9615.44  1082.95  3531.94
9621.43  1048.89  3655.11
10401.2  1291.86  2858.37
11589.1  1232.68  1463.18
12690.7  561.793  482.417
11757  1289.28  1547.97
11867.9  1249.98  1421.63
12041.8  1205.04  1288.75
11583.5  1412.67  2147.86
12241.6  1271.72  1370.69
10627.4  1244.56  3292.27
13106.8  756.35  582.098
13640.8  362.077  245.082
13466.7  561.909  393.336
12379.3  1330.94  1465.95
12523.2  1287.42  1335.99
12992.1  1250.72  1173.9
13966.1  575.922  351.188
11835.5  1445.75  2732.52
11200.4  1247.57  3504.02
14392.7  383.436  191.636
14247.5  588.634  332.281
13292.6  1330.65  1258.6
11711.3  1359.82  3238.7
14144  788.767  494.274
12731.7  1523.78  2031.74
12214.8  1474.58  2834.36
14592  608.68  313.638
13496  1402.04  1358.87
13012.7  1550.31  2009.63
12599.6  1528.6  2683.27
13308  1553.82  1861.89
15275.4  297.96  106.135
13919.1  1370.52  1214.68
15015  631.889  292.463
14276.8  1327.55  1081.29
14167.2  1388.58  1201.33
14078.7  1443.95  1323.55
13635.1  1608.12  1971.17
14446.7  1411.02  1188.59
13888.3  1605.09  1829.78
15177.4  959.672  524.62
12855.4  1490.96  3197.52
13881.8  1631.03  1959.77
14617.8  1426.02  1181.87
14544.2  1482.82  1303.39
15444.5  979.188  510.502
15037.4  1460.43  1157.16
14937.7  1516.73  1283.2
15350.8  1338.54  912.675
13506.5  1519.36  3452.18
14189.6  1704.17  2622.74
15777.3  1419.14  947.022
14642.5  1753.02  2340.61
14090.6  1638.37  3173.39
16088.5  1377.47  836.514
14597.4  1744.28  2754.27
16142.9  1528.54  1039.85
15442.4  1785.43  1902.76
14766.6  1764.59  2752.59
15376.5  1813.9  2108.14
15181.8  1816.28  2736.77
16512.4  1644.75  1159.1
15793.5  1859.88  2091.36
15999.8  1861.79  1960.22
16981.9  1601.43  993.16
16003.6  1899.94  2206.61
17071.2  1614.32  997.506
16415.4  1870.81  1778.03
15403.1  1778.38  3355.46
16834.5  1952.19  1922.61
16972.9  1966.35  1917.37
9356.57  567.123  1351.3
8323.2  1009.33  2634.97
8669.97  1061.66  2651.38
9917.94  776.678  1303.78
8904.7  1085.8  2450.98
9382.83  1082.71  1989.41
10106  773.742  1231.69
10231.5  698.448  1127.79
10967.4  262.282  659.336
10351.4  789.53  1161.58
10522.4  771.059  1092.28
10617.2  978.703  1280.03
10816.7  967.078  1205.66
11232.2  798.834  927.126
10954.9  1006.65  1221.4
10893  1054.96  1312.27
11988.7  273.144  424.193
11252.4  909.464  1029.91
11416.2  831.947  916.414
11527  747.355  818.135
10011.6  1253.44  2536.84
11183.2  1026.65  1192.14
11695.3  837.164  865.152
10933.7  1337.74  2156.4
12002.5  1002.1  991.493
12257.8  843.015  774.063
12401.9  754.267  670.967
11142.9  1353.44  2088.64
11289.6  1373.63  2106.71
12540.8  845.041  734.051
10120.7  1144.79  3492.73
13227.3  261.336  230.478
11137.9  1343.92  3024.32
11835.9  1445.77  2199.63
13049.5  1027.82  855.818
11962.2  1461.73  2227.27
13200.3  1074.23  889.94
13130.8  1137.81  981.688
12151.8  1484.99  2270.82
12046.1  1478.8  2425.38
13702.2  867.408  611.082
13445.2  1097.37  884.63
12344.8  1500.08  2190.97
13951.5  877.91  592.78
12472  1523.74  2433.65
14544.6  913.795  558.439
12280.2  1382.29  3410.59
15360.6  650.667  278.303
15107.7  1234.1  819.453
13439  1598.61  2912.91
14591.9  1670.67  1805.4
14519  1692.16  1938.78
14689.4  1709.32  1934.95
15463.6  1533.94  1195.93
15906  1720.56  1490.13
16612.2  1477.4  879.037
16071  1738.1  1483.6
16279.4  1728.79  1395.4
16185.9  1785.9  1580.06
16673.6  1826.43  1528.71
9838.86  966.498  1554.53
175  172  170
175  173  22
175  170  173
176  174  171
177  167  65
177  73  167
178  172  175
178  175  22
180  172  178
180  179  172
180  76  179
180  78  76
182  177  179
182  73  177
182  179  76
184  26  75
185  182  76
185  183  182
185  76  77
186  184  28
186  27  26
186  28  27
186  26  184
187  183  185
187  185  77
188  22  81
188  178  22
188  180  178
188  81  79
188  78  180
188  79  78
189  187  77
189  77  30
190  189  30
190  29  28
190  30  29
191  83  40
191  84  83
191  92  89
191  42  92
191  40  42
191  89  84
192  16  17
192  85  16
192  86  85
192  88  86
193  44  100
193  192  17
193  88  192
193  17  44
194  89  92
194  93  89
194  92  94
195  100  43
195  193  100
195  90  88
195  43  90
195  88  193
196  90  43
196  91  90
196  96  91
196  98  96
196  43  99
196  99  98
197  194  45
197  93  194
198  95  93
198  93  197
198  97  95
199  6  5
199  5  97
199  105  6
199  97  103
199  103  104
199  104  105
200  197  45
33  1  12
200  198  197
34  3  1
201  97  198
201  198  200
201  103  97
34  1  33
35  12  13
202  200  45
35  13  14
202  45  108
202  201  200
202  108  109
35  33  12
203  103  201
203  201  202
36  34  33
36  33  35
204  104  103
37  3  34
205  103  203
206  205  203
38  37  34
206  202  109
206  203  202
206  109  112
38  34  36
207  110  113
207  113  116
207  116  6
207  6  105
207  105  110
39  35  14
208  204  103
39  36  35
208  103  205
40  38  36
209  208  52
209  204  208
40  36  39
210  104  204
210  105  104
210  204  209
41  39  14
210  110  105
211  114  47
211  118  121
211  111  118
211  121  114
211  101  106
42  40  39
211  106  111
42  39  41
211  47  101
212  117  122
212  112  117
212  52  208
212  122  52
212  205  206
212  206  112
212  208  205
213  115  110
213  110  210
213  210  209
44  17  18
213  209  52
214  50  114
214  117  112
214  114  54
214  112  50
215  52  126
215  126  55
215  115  213
215  213  52
46  18  11
216  113  115
216  215  55
46  44  18
216  115  215
217  116  113
217  123  116
48  44  46
217  113  216
218  214  54
218  117  214
49  48  46
219  53  117
219  117  218
219  54  127
219  127  53
219  218  54
220  216  55
220  217  216
220  123  217
51  46  11
51  49  46
220  130  123
51  11  20
221  118  111
221  111  119
221  120  20
221  119  120
221  20  129
221  129  118
222  8  7
222  7  123
222  131  8
222  132  131
222  130  132
222  123  130
223  54  121
223  137  54
223  121  129
223  129  138
223  142  137
223  138  142
224  53  127
224  127  137
224  56  53
225  130  220
225  220  55
225  55  135
226  56  224
227  130  225
228  225  135
228  227  225
228  135  141
229  56  226
230  224  137
230  226  224
230  229  226
230  137  145
231  132  130
231  136  132
232  141  147
232  152  58
232  130  227
232  227  228
232  147  152
232  228  141
232  231  130
232  58  231
233  56  229
233  57  56
233  144  57
234  136  231
234  231  58
234  58  143
234  143  136
235  149  144
235  145  149
235  229  230
235  230  145
235  233  229
235  144  233
64  2  10
236  153  146
236  160  153
236  143  59
64  10  63
236  140  143
236  146  140
237  149  145
237  161  149
237  21  161
237  142  21
237  145  142
238  151  153
238  63  151
238  165  63
238  153  160
238  160  165
239  166  168
66  64  63
239  163  166
239  168  160
239  236  59
239  59  163
239  160  236
240  149  161
240  61  149
240  170  61
240  161  169
240  169  173
240  173  170
68  23  2
241  65  62
68  24  23
68  64  66
68  2  64
242  170  172
242  62  159
242  159  162
242  162  170
69  66  63
242  241  62
243  179  177
243  242  172
243  177  65
243  65  241
243  241  242
243  172  179
244  168  166
70  63  67
244  167  73
70  69  63
244  166  167
244  171  168
245  73  182
71  70  67
245  182  183
72  25  24
245  176  171
245  244  73
72  24  68
245  171  244
72  68  66
246  176  181
72  66  69
246  184  75
72  69  70
246  181  184
246  71  174
246  75  71
246  174  176
247  176  245
247  245  183
248  181  176
248  176  247
249  187  248
249  248  247
74  25  72
249  183  187
74  70  71
249  247  183
74  72  70
250  248  187
75  26  25
250  28  184
250  184  181
250  187  189
250  190  28
250  189  190
75  25  74
250  181  248
251  102  45
75  74  71
251  45  194
251  194  94
251  94  96
251  96  98
251  98  102
80  31  30
80  77  76
80  30  77
80  76  78
81  22  19
82  31  80
82  80  78
82  81  19
82  32  31
82  19  32
82  79  81
82  78  79
83  37  38
83  38  40
83  3  37
84  4  3
84  3  83
85  14  15
85  15  16
86  41  14
86  14  85
87  42  41
88  87  41
88  41  86
89  4  84
90  87  88
91  42  87
91  87  90
93  4  89
94  92  42
94  42  91
95  5  4
95  4  93
96  94  91
97  5  95
99  43  47
100  44  48
101  47  43
101  43  100
102  98  99
102  99  47
106  100  48
106  101  100
107  47  50