 VARIABLES = X Y
 ZONE N = 10, E = 9, DATAPACKING= POINT, ZONETYPE= FETRIANGLE
1.03  0.84
1.00313  0.84
0.949375  0.84
0.895625  0.84
0.841875  0.84
0.788125  0.84
0.734375  0.84
0.680625  0.84
0.626875  0.84
0.6  0.84
1  2  1
2  3  2
3  4  3
4  5  4
5  6  5
6  7  6
7  8  7
8  9  8
9  10  9
 VARIABLES = X Y
 ZONE N = 10, E = 9, DATAPACKING= POINT, ZONETYPE= FETRIANGLE
0.6  0.84
0.6  0.8
0.6  0.72
0.6  0.64
0.6  0.56
0.6  0.48
0.6  0.4
0.6  0.32
0.6  0.24
0.6  0.2
1  2  1
2  3  2
3  4  3
4  5  4
5  6  5
6  7  6
7  8  7
8  9  8
9  10  9
 VARIABLES = X Y
 ZONE N = 10, E = 9, DATAPACKING= POINT, ZONETYPE= FETRIANGLE
0.6  0.2
0.626875  0.2
0.680625  0.2
0.734375  0.2
0.788125  0.2
0.841875  0.2
0.895625  0.2
0.949375  0.2
1.00313  0.2
1.03  0.2
1  2  1
2  3  2
3  4  3
4  5  4
5  6  5
6  7  6
7  8  7
8  9  8
9  10  9
 VARIABLES = X Y
 ZONE N = 10, E = 9, DATAPACKING= POINT, ZONETYPE= FETRIANGLE
1.03  0.2
1.03  0.24
1.03  0.32
1.03  0.4
1.03  0.48
1.03  0.56
1.03  0.64
1.03  0.72
1.03  0.8
1.03  0.84
1  2  1
2  3  2
3  4  3
4  5  4
5  6  5
6  7  6
7  8  7
8  9  8
9  10  9
