 VARIABLES = X Y
 ZONE N = 301, E = 300, DATAPACKING= POINT, ZONETYPE= FETRIANGLE
0  0.5
0.0001  0.5
0.0004  0.5
0.000900001  0.5
0.0016  0.5
0.0025  0.5
0.0036  0.5
0.0049  0.5
0.00640001  0.5
0.00810001  0.5
0.01  0.5
0.0121  0.5
0.0144  0.5
0.0169  0.5
0.0196  0.5
0.0225  0.5
0.0256  0.5
0.0289  0.5
0.0324  0.5
0.0361  0.5
0.04  0.5
0.0441  0.5
0.0484  0.5
0.0529  0.5
0.0576  0.5
0.0625001  0.5
0.0674251  0.49984
0.0722001  0.49936
0.0768251  0.49856
0.0813001  0.49744
0.0856251  0.496
0.0898001  0.49424
0.093825  0.49216
0.0977  0.48976
0.101425  0.48704
0.105  0.484
0.108425  0.48064
0.1117  0.47696
0.114825  0.47296
0.1178  0.46864
0.120625  0.464
0.1233  0.45904
0.125825  0.45376
0.1282  0.44816
0.130425  0.44224
0.1325  0.436
0.134425  0.42944
0.1362  0.42256
0.137825  0.41536
0.1393  0.40784
0.140625  0.4
0.14185  0.39216
0.143025  0.38464
0.14415  0.37744
0.145225  0.37056
0.14625  0.364
0.147225  0.35776
0.14815  0.35184
0.149025  0.34624
0.14985  0.34096
0.150625  0.336
0.15135  0.33136
0.152025  0.32704
0.15265  0.32304
0.153225  0.31936
0.15375  0.316
0.154225  0.31296
0.15465  0.31024
0.155025  0.30784
0.15535  0.30576
0.155625  0.304
0.15585  0.30256
0.156025  0.30144
0.15615  0.30064
0.156225  0.30016
0.15625  0.3
0.156275  0.29984
0.15635  0.29936
0.156475  0.29856
0.15665  0.29744
0.156875  0.296
0.15715  0.29424
0.157475  0.29216
0.15785  0.28976
0.158275  0.28704
0.15875  0.284
0.159275  0.28064
0.15985  0.27696
0.160475  0.27296
0.16115  0.26864
0.161875  0.264
0.16265  0.25904
0.163475  0.25376
0.16435  0.24816
0.165275  0.24224
0.16625  0.236
0.167275  0.22944
0.16835  0.22256
0.169475  0.21536
0.17065  0.20784
0.171875  0.2
0.17315  0.19216
0.174475  0.18464
0.17585  0.17744
0.177275  0.17056
0.17875  0.164
0.180275  0.15776
0.18185  0.15184
0.183475  0.14624
0.18515  0.14096
0.186875  0.136
0.18865  0.13136
0.190475  0.12704
0.19235  0.12304
0.194275  0.11936
0.19625  0.116
0.198275  0.11296
0.20035  0.11024
0.202475  0.10784
0.20465  0.10576
0.206875  0.104
0.20915  0.10256
0.211475  0.10144
0.21385  0.10064
0.216275  0.10016
0.21875  0.1
0.2212  0.1
0.22355  0.1
0.2258  0.1
0.22795  0.1
0.23  0.1
0.23195  0.1
0.2338  0.1
0.23555  0.1
0.2372  0.1
0.23875  0.1
0.2402  0.1
0.24155  0.1
0.2428  0.1
0.24395  0.1
0.245  0.1
0.24595  0.1
0.2468  0.1
0.24755  0.1
0.2482  0.1
0.24875  0.1
0.2492  0.1
0.24955  0.1
0.2498  0.1
0.24995  0.1
0.25  0.1
0.25095  0.1
0.2538  0.1
0.25855  0.1
0.2652  0.1
0.27375  0.1
0.2842  0.1
0.29655  0.1
0.3108  0.1
0.32695  0.1
0.345  0.1
0.36495  0.1
0.3868  0.1
0.41055  0.1
0.4362  0.1
0.46375  0.1
0.4932  0.1
0.52455  0.1
0.5578  0.1
0.59295  0.1
0.63  0.1
0.66895  0.1
0.7098  0.1
0.75255  0.1
0.7972  0.1
0.84375  0.1
0.890775  0.10076
0.93685  0.10304
0.981975  0.10684
1.02615  0.11216
1.06938  0.119
1.11165  0.12736
1.15298  0.13724
1.19335  0.14864
1.23278  0.16156
1.27125  0.176
1.30878  0.19196
1.34535  0.20944
1.38098  0.22844
1.41565  0.24896
1.44938  0.271
1.48215  0.29456
1.51398  0.31964
1.54485  0.34624
1.57478  0.37436
1.60375  0.404
1.63178  0.43516
1.65885  0.46784
1.68498  0.50204
1.71015  0.53776
1.73438  0.575
1.75765  0.61224
1.77998  0.64796
1.80135  0.68216
1.82178  0.71484
1.84125  0.746
1.85978  0.77564
1.87735  0.80376
1.89398  0.83036
1.90965  0.85544
1.92438  0.879
1.93815  0.90104
1.95098  0.92156
1.96285  0.94056
1.97378  0.95804
1.98375  0.974
1.99278  0.98844
2.00085  1.00136
2.00798  1.01276
2.01415  1.02264
2.01938  1.031
2.02365  1.03784
2.02698  1.04316
2.02935  1.04696
2.03078  1.04924
2.03125  1.05
2.03173  1.05076
2.03315  1.05304
2.03553  1.05684
2.03885  1.06216
2.04313  1.069
2.04835  1.07736
2.05453  1.08724
2.06165  1.09864
2.06973  1.11156
2.07875  1.126
2.08873  1.14196
2.09965  1.15944
2.11153  1.17844
2.12435  1.19896
2.13813  1.221
2.15285  1.24456
2.16853  1.26964
2.18515  1.29624
2.20273  1.32436
2.22125  1.354
2.24073  1.38516
2.26115  1.41784
2.28253  1.45204
2.30485  1.48776
2.32813  1.525
2.3533  1.56224
2.38133  1.59796
2.4122  1.63216
2.44593  1.66484
2.4825  1.696
2.52193  1.72564
2.5642  1.75376
2.60933  1.78036
2.6573  1.80544
2.70813  1.829
2.7618  1.85104
2.81833  1.87156
2.8777  1.89056
2.93993  1.90804
3.005  1.924
3.07293  1.93844
3.1437  1.95136
3.21733  1.96276
3.2938  1.97264
3.37313  1.981
3.4553  1.98784
3.54033  1.99316
3.6282  1.99696
3.71893  1.99924
3.8125  2
3.9056  2
3.9949  2
4.0804  2
4.1621  2
4.24  2
4.3141  2
4.3844  2
4.4509  2
4.5136  2
4.5725  2
4.6276  2
4.6789  2
4.7264  2
4.7701  2
4.81  2
4.8461  2
4.8784  2
4.9069  2
4.9316  2
4.9525  2
4.9696  2
4.9829  2
4.9924  2
4.9981  2
5  2
1  2  1
2  3  2
3  4  3
4  5  4
5  6  5
6  7  6
7  8  7
8  9  8
9  10  9
10  11  10
11  12  11
12  13  12
13  14  13
14  15  14
15  16  15
16  17  16
17  18  17
18  19  18
19  20  19
20  21  20
21  22  21
22  23  22
23  24  23
24  25  24
25  26  25
26  27  26
27  28  27
28  29  28
29  30  29
30  31  30
31  32  31
32  33  32
33  34  33
34  35  34
35  36  35
36  37  36
37  38  37
38  39  38
39  40  39
40  41  40
41  42  41
42  43  42
43  44  43
44  45  44
45  46  45
46  47  46
47  48  47
48  49  48
49  50  49
50  51  50
51  52  51
52  53  52
53  54  53
54  55  54
55  56  55
56  57  56
57  58  57
58  59  58
59  60  59
60  61  60
61  62  61
62  63  62
63  64  63
64  65  64
65  66  65
66  67  66
67  68  67
68  69  68
69  70  69
70  71  70
71  72  71
72  73  72
73  74  73
74  75  74
75  76  75
76  77  76
77  78  77
78  79  78
79  80  79
80  81  80
81  82  81
82  83  82
83  84  83
84  85  84
85  86  85
86  87  86
87  88  87
88  89  88
89  90  89
90  91  90
91  92  91
92  93  92
93  94  93
94  95  94
95  96  95
96  97  96
97  98  97
98  99  98
99  100  99
100  101  100
101  102  101
102  103  102
103  104  103
104  105  104
105  106  105
106  107  106
107  108  107
108  109  108
109  110  109
110  111  110
111  112  111
112  113  112
113  114  113
114  115  114
115  116  115
116  117  116
117  118  117
118  119  118
119  120  119
120  121  120
121  122  121
122  123  122
123  124  123
124  125  124
125  126  125
126  127  126
127  128  127
128  129  128
129  130  129
130  131  130
131  132  131
132  133  132
133  134  133
134  135  134
135  136  135
136  137  136
137  138  137
138  139  138
139  140  139
140  141  140
141  142  141
142  143  142
143  144  143
144  145  144
145  146  145
146  147  146
147  148  147
148  149  148
149  150  149
150  151  150
151  152  151
152  153  152
153  154  153
154  155  154
155  156  155
156  157  156
157  158  157
158  159  158
159  160  159
160  161  160
161  162  161
162  163  162
163  164  163
164  165  164
165  166  165
166  167  166
167  168  167
168  169  168
169  170  169
170  171  170
171  172  171
172  173  172
173  174  173
174  175  174
175  176  175
176  177  176
177  178  177
178  179  178
179  180  179
180  181  180
181  182  181
182  183  182
183  184  183
184  185  184
185  186  185
186  187  186
187  188  187
188  189  188
189  190  189
190  191  190
191  192  191
192  193  192
193  194  193
194  195  194
195  196  195
196  197  196
197  198  197
198  199  198
199  200  199
200  201  200
201  202  201
202  203  202
203  204  203
204  205  204
205  206  205
206  207  206
207  208  207
208  209  208
209  210  209
210  211  210
211  212  211
212  213  212
213  214  213
214  215  214
215  216  215
216  217  216
217  218  217
218  219  218
219  220  219
220  221  220
221  222  221
222  223  222
223  224  223
224  225  224
225  226  225
226  227  226
227  228  227
228  229  228
229  230  229
230  231  230
231  232  231
232  233  232
233  234  233
234  235  234
235  236  235
236  237  236
237  238  237
238  239  238
239  240  239
240  241  240
241  242  241
242  243  242
243  244  243
244  245  244
245  246  245
246  247  246
247  248  247
248  249  248
249  250  249
250  251  250
251  252  251
252  253  252
253  254  253
254  255  254
255  256  255
256  257  256
257  258  257
258  259  258
259  260  259
260  261  260
261  262  261
262  263  262
263  264  263
264  265  264
265  266  265
266  267  266
267  268  267
268  269  268
269  270  269
270  271  270
271  272  271
272  273  272
273  274  273
274  275  274
275  276  275
276  277  276
277  278  277
278  279  278
279  280  279
280  281  280
281  282  281
282  283  282
283  284  283
284  285  284
285  286  285
286  287  286
287  288  287
288  289  288
289  290  289
290  291  290
291  292  291
292  293  292
293  294  293
294  295  294
295  296  295
296  297  296
297  298  297
298  299  298
299  300  299
300  301  300
