 VARIABLES = X Y
 ZONE N = 37, E = 36, DATAPACKING= POINT, ZONETYPE= FETRIANGLE
-0.481121  0.245144
-0.653623  -0.0523898
-0.927843  -0.489312
-1.1229  -0.772563
-1.32812  -1.04852
-1.54318  -1.31689
-1.76772  -1.57738
-2.00183  -1.82929
-2.24641  -2.07103
-2.43725  -2.2417
-2.53778  -2.31992
-2.60781  -2.36798
-2.68046  -2.41196
-2.75574  -2.45128
-2.83345  -2.48552
-2.91329  -2.51446
-2.99486  -2.53808
-3.07775  -2.55653
-3.16158  -2.5701
-3.24601  -2.57917
-3.33078  -2.58412
-3.41569  -2.58535
-3.54298  -2.58105
-3.71211  -2.56585
-3.88035  -2.54268
-4.13106  -2.49756
-4.46278  -2.42455
-5.93847  -2.02622
-8.59148  -1.36882
-10.6052  -0.981709
-11.9581  -0.784708
-13.3173  -0.637143
-14.6825  -0.566471
-16.0493  -0.582058
-17.4132  -0.675377
-19.4474  -0.932199
-20.7947  -1.16355
1  2  1
2  3  2
3  4  3
4  5  4
5  6  5
6  7  6
7  8  7
8  9  8
9  10  9
10  11  10
11  12  11
12  13  12
13  14  13
14  15  14
15  16  15
16  17  16
17  18  17
18  19  18
19  20  19
20  21  20
21  22  21
22  23  22
23  24  23
24  25  24
25  26  25
26  27  26
27  28  27
28  29  28
29  30  29
30  31  30
31  32  31
32  33  32
33  34  33
34  35  34
35  36  35
36  37  36
 VARIABLES = X Y
 ZONE N = 38, E = 37, DATAPACKING= POINT, ZONETYPE= FETRIANGLE
-0.481121  0.245144
-0.341806  0.559586
-0.149511  1.03825
-0.0350046  1.36254
0.0676227  1.69078
0.158327  2.02251
0.237089  2.35727
0.30328  2.69474
0.355095  3.03471
0.377964  3.24706
0.383277  3.33182
0.385182  3.41672
0.382901  3.50163
0.375778  3.58625
0.363346  3.67027
0.345369  3.75327
0.321853  3.83486
0.293014  3.91473
0.259219  3.99264
0.220925  4.06844
0.17863  4.14208
0.132809  4.21356
0.0839015  4.28298
0.00560662  4.38343
-0.106111  4.51133
-0.223742  4.63382
-0.533636  4.92397
-1.85129  5.99531
-3.94255  7.75522
-5.43938  9.15685
-6.39397  10.1356
-7.31224  11.1484
-8.17185  12.2113
-8.96266  13.3263
-9.68881  14.4845
-10.3593  15.6758
-10.9838  16.8919
-11.2815  17.5072
1  2  1
2  3  2
3  4  3
4  5  4
5  6  5
6  7  6
7  8  7
8  9  8
9  10  9
10  11  10
11  12  11
12  13  12
13  14  13
14  15  14
15  16  15
16  17  16
17  18  17
18  19  18
19  20  19
20  21  20
21  22  21
22  23  22
23  24  23
24  25  24
25  26  25
26  27  26
27  28  27
28  29  28
29  30  29
30  31  30
31  32  31
32  33  32
33  34  33
34  35  34
35  36  35
36  37  36
37  38  37
 VARIABLES = X Y
 ZONE N = 10, E = 9, DATAPACKING= POINT, ZONETYPE= FETRIANGLE
-11.2815  17.5072
-11.8761  16.3403
-13.0652  14.0064
-14.2544  11.6726
-15.4435  9.33875
-16.6327  7.00491
-17.8218  4.67106
-19.011  2.33722
-20.2002  0.0033724
-20.7947  -1.16355
1  2  1
2  3  2
3  4  3
4  5  4
5  6  5
6  7  6
7  8  7
8  9  8
9  10  9
 VARIABLES = X Y
 ZONE N = 10, E = 9, DATAPACKING= POINT, ZONETYPE= FETRIANGLE
-75  -45
-65.625  -45
-46.875  -45
-28.125  -45
-9.375  -45
9.375  -45
28.125  -45
46.875  -45
65.625  -45
75  -45
1  2  1
2  3  2
3  4  3
4  5  4
5  6  5
6  7  6
7  8  7
8  9  8
9  10  9
 VARIABLES = X Y
 ZONE N = 10, E = 9, DATAPACKING= POINT, ZONETYPE= FETRIANGLE
75  -45
75  -42.2283
75  -36.6849
75  -31.1414
75  -25.598
75  -20.0546
75  -14.5112
75  -8.96781
75  -3.4244
75  -0.6527
1  2  1
2  3  2
3  4  3
4  5  4
5  6  5
6  7  6
7  8  7
8  9  8
9  10  9
 VARIABLES = X Y
 ZONE N = 10, E = 9, DATAPACKING= POINT, ZONETYPE= FETRIANGLE
75  -0.6527
65.625  -0.6527
46.875  -0.6527
28.125  -0.6527
9.375  -0.6527
-9.375  -0.6527
-28.125  -0.6527
-46.875  -0.6527
-65.625  -0.6527
-75  -0.6527
1  2  1
2  3  2
3  4  3
4  5  4
5  6  5
6  7  6
7  8  7
8  9  8
9  10  9
 VARIABLES = X Y
 ZONE N = 10, E = 9, DATAPACKING= POINT, ZONETYPE= FETRIANGLE
-75  -0.6527
-75  -3.4244
-75  -8.96781
-75  -14.5112
-75  -20.0546
-75  -25.598
-75  -31.1414
-75  -36.6849
-75  -42.2283
-75  -45
1  2  1
2  3  2
3  4  3
4  5  4
5  6  5
6  7  6
7  8  7
8  9  8
9  10  9
 VARIABLES = X Y
 ZONE N = 41, E = 40, DATAPACKING= POINT, ZONETYPE= FETRIANGLE
-17.1595  -0.6527
-17.2509  -0.660612
-17.3424  -0.668821
-17.4338  -0.677324
-17.5252  -0.686116
-17.6166  -0.695194
-17.7079  -0.704552
-17.7992  -0.714189
-17.8905  -0.724098
-17.9817  -0.734276
-18.0729  -0.74472
-18.1641  -0.755425
-18.2553  -0.766388
-18.3464  -0.777604
-18.4375  -0.789071
-18.5286  -0.800783
-18.6196  -0.812738
-18.7106  -0.824932
-18.8016  -0.837361
-18.8925  -0.850021
-18.9834  -0.86291
-19.0743  -0.876023
-19.1651  -0.889358
-19.2559  -0.90291
-19.3467  -0.916676
-19.4374  -0.930654
-19.5281  -0.94484
-19.6188  -0.95923
-19.7095  -0.973822
-19.8001  -0.988612
-19.8907  -1.0036
-19.9812  -1.01877
-20.0717  -1.03414
-20.1622  -1.0497
-20.2527  -1.06543
-20.3431  -1.08135
-20.4335  -1.09744
-20.5238  -1.11372
-20.6142  -1.13016
-20.7045  -1.14677
-20.7947  -1.16355
1  2  1
2  3  2
3  4  3
4  5  4
5  6  5
6  7  6
7  8  7
8  9  8
9  10  9
10  11  10
11  12  11
12  13  12
13  14  13
14  15  14
15  16  15
16  17  16
17  18  17
18  19  18
19  20  19
20  21  20
21  22  21
22  23  22
23  24  23
24  25  24
25  26  25
26  27  26
27  28  27
28  29  28
29  30  29
30  31  30
31  32  31
32  33  32
33  34  33
34  35  34
35  36  35
36  37  36
37  38  37
38  39  38
39  40  39
40  41  40
 VARIABLES = X Y
 ZONE N = 41, E = 40, DATAPACKING= POINT, ZONETYPE= FETRIANGLE
-1.03851  -0.6527
-1.23119  -0.920801
-1.43312  -1.18201
-1.64391  -1.43611
-1.86341  -1.68273
-2.09196  -1.92098
-2.33048  -2.14879
-2.5848  -2.3528
-2.87437  -2.50111
-3.19155  -2.57382
-3.51717  -2.58248
-3.84137  -2.54864
-4.16233  -2.49124
-4.48061  -2.42031
-4.79694  -2.34111
-5.11197  -2.25686
-5.42625  -2.16982
-5.74023  -2.08171
-6.05446  -1.99399
-6.37081  -1.90762
-6.68801  -1.82356
-7.0058  -1.74183
-7.32417  -1.66234
-7.64308  -1.58506
-7.96251  -1.50997
-8.28244  -1.43706
-8.60287  -1.36634
-8.92379  -1.29786
-9.24518  -1.23169
-9.56707  -1.16795
-9.88947  -1.10683
-10.2124  -1.04854
-10.5358  -0.993188
-10.8598  -0.940822
-11.1842  -0.891402
-11.509  -0.844802
-11.8342  -0.800825
-12.1596  -0.759231
-12.4855  -0.720199
-12.8117  -0.684478
-13.1383  -0.6527
1  2  1
2  3  2
3  4  3
4  5  4
5  6  5
6  7  6
7  8  7
8  9  8
9  10  9
10  11  10
11  12  11
12  13  12
13  14  13
14  15  14
15  16  15
16  17  16
17  18  17
18  19  18
19  20  19
20  21  20
21  22  21
22  23  22
23  24  23
24  25  24
25  26  25
26  27  26
27  28  27
28  29  28
29  30  29
30  31  30
31  32  31
32  33  32
33  34  33
34  35  34
35  36  35
36  37  36
37  38  37
38  39  38
39  40  39
40  41  40
 VARIABLES = X Y
 ZONE N = 41, E = 40, DATAPACKING= POINT, ZONETYPE= FETRIANGLE
-20.5344  -0.6527
-20.5409  -0.665471
-20.5475  -0.678242
-20.554  -0.691014
-20.5605  -0.703785
-20.567  -0.716556
-20.5735  -0.729327
-20.58  -0.742099
-20.5865  -0.75487
-20.593  -0.767641
-20.5995  -0.780412
-20.606  -0.793184
-20.6125  -0.805955
-20.619  -0.818726
-20.6255  -0.831497
-20.632  -0.844269
-20.6386  -0.85704
-20.6451  -0.869811
-20.6516  -0.882582
-20.6581  -0.895354
-20.6646  -0.908125
-20.6711  -0.920896
-20.6776  -0.933667
-20.6841  -0.946439
-20.6906  -0.95921
-20.6971  -0.971981
-20.7036  -0.984752
-20.7101  -0.997524
-20.7166  -1.01029
-20.7232  -1.02307
-20.7297  -1.03584
-20.7362  -1.04861
-20.7427  -1.06138
-20.7492  -1.07415
-20.7557  -1.08692
-20.7622  -1.09969
-20.7687  -1.11246
-20.7752  -1.12524
-20.7817  -1.13801
-20.7882  -1.15078
-20.7947  -1.16355
1  2  1
2  3  2
3  4  3
4  5  4
5  6  5
6  7  6
7  8  7
8  9  8
9  10  9
10  11  10
11  12  11
12  13  12
13  14  13
14  15  14
15  16  15
16  17  16
17  18  17
18  19  18
19  20  19
20  21  20
21  22  21
22  23  22
23  24  23
24  25  24
25  26  25
26  27  26
27  28  27
28  29  28
29  30  29
30  31  30
31  32  31
32  33  32
33  34  33
34  35  34
35  36  35
36  37  36
37  38  37
38  39  38
39  40  39
40  41  40
 VARIABLES = X Y
 ZONE N = 41, E = 40, DATAPACKING= POINT, ZONETYPE= FETRIANGLE
-1.03851  -0.6527
-1.341  -0.6527
-1.6435  -0.6527
-1.94599  -0.6527
-2.24848  -0.6527
-2.55098  -0.6527
-2.85347  -0.6527
-3.15597  -0.6527
-3.45846  -0.6527
-3.76095  -0.6527
-4.06345  -0.6527
-4.36594  -0.6527
-4.66843  -0.6527
-4.97093  -0.6527
-5.27342  -0.6527
-5.57591  -0.6527
-5.87841  -0.6527
-6.1809  -0.6527
-6.48339  -0.6527
-6.78589  -0.6527
-7.08838  -0.6527
-7.39087  -0.6527
-7.69337  -0.6527
-7.99586  -0.6527
-8.29835  -0.6527
-8.60085  -0.6527
-8.90334  -0.6527
-9.20583  -0.6527
-9.50833  -0.6527
-9.81082  -0.6527
-10.1133  -0.6527
-10.4158  -0.6527
-10.7183  -0.6527
-11.0208  -0.6527
-11.3233  -0.6527
-11.6258  -0.6527
-11.9283  -0.6527
-12.2308  -0.6527
-12.5333  -0.6527
-12.8358  -0.6527
-13.1383  -0.6527
1  2  1
2  3  2
3  4  3
4  5  4
5  6  5
6  7  6
7  8  7
8  9  8
9  10  9
10  11  10
11  12  11
12  13  12
13  14  13
14  15  14
15  16  15
16  17  16
17  18  17
18  19  18
19  20  19
20  21  20
21  22  21
22  23  22
23  24  23
24  25  24
25  26  25
26  27  26
27  28  27
28  29  28
29  30  29
30  31  30
31  32  31
32  33  32
33  34  33
34  35  34
35  36  35
36  37  36
37  38  37
38  39  38
39  40  39
40  41  40
 VARIABLES = X Y
 ZONE N = 41, E = 40, DATAPACKING= POINT, ZONETYPE= FETRIANGLE
-17.1595  -0.6527
-17.2439  -0.6527
-17.3282  -0.6527
-17.4126  -0.6527
-17.497  -0.6527
-17.5813  -0.6527
-17.6657  -0.6527
-17.7501  -0.6527
-17.8345  -0.6527
-17.9188  -0.6527
-18.0032  -0.6527
-18.0876  -0.6527
-18.172  -0.6527
-18.2563  -0.6527
-18.3407  -0.6527
-18.4251  -0.6527
-18.5095  -0.6527
-18.5938  -0.6527
-18.6782  -0.6527
-18.7626  -0.6527
-18.847  -0.6527
-18.9313  -0.6527
-19.0157  -0.6527
-19.1001  -0.6527
-19.1845  -0.6527
-19.2688  -0.6527
-19.3532  -0.6527
-19.4376  -0.6527
-19.522  -0.6527
-19.6063  -0.6527
-19.6907  -0.6527
-19.7751  -0.6527
-19.8594  -0.6527
-19.9438  -0.6527
-20.0282  -0.6527
-20.1126  -0.6527
-20.1969  -0.6527
-20.2813  -0.6527
-20.3657  -0.6527
-20.4501  -0.6527
-20.5344  -0.6527
1  2  1
2  3  2
3  4  3
4  5  4
5  6  5
6  7  6
7  8  7
8  9  8
9  10  9
10  11  10
11  12  11
12  13  12
13  14  13
14  15  14
15  16  15
16  17  16
17  18  17
18  19  18
19  20  19
20  21  20
21  22  21
22  23  22
23  24  23
24  25  24
25  26  25
26  27  26
27  28  27
28  29  28
29  30  29
30  31  30
31  32  31
32  33  32
33  34  33
34  35  34
35  36  35
36  37  36
37  38  37
38  39  38
39  40  39
40  41  40
