 VARIABLES = X Y
 ZONE N = 43, E = 42, DATAPACKING= POINT, ZONETYPE= FETRIANGLE
1.77636e-15  7.52556
-1.09887  7.52556
-3.29661  7.52556
-5.49435  7.52556
-6.73035  7.5373
-6.93576  7.55264
-7.07208  7.56891
-7.20746  7.59176
-7.30792  7.61436
-7.3741  7.63258
-7.43943  7.65372
-7.50361  7.67813
-7.56627  7.70619
-7.61201  7.72986
-7.64178  7.74697
-7.67089  7.76518
-7.69926  7.78453
-7.7268  7.80504
-7.75343  7.82672
-7.77907  7.84956
-7.80363  7.87355
-7.82708  7.89869
-7.84943  7.92496
-7.8707  7.95234
-7.89093  7.9808
-7.91013  8.0103
-7.92835  8.04083
-7.95374  8.08825
-7.98382  8.15338
-8.00994  8.22021
-8.03252  8.28831
-8.05197  8.35734
-8.06865  8.42711
-8.08922  8.53272
-8.10975  8.67471
-8.12939  8.88901
-8.14162  9.17578
-8.14509  9.60816
-8.14526  10.4763
-8.14559  12.2125
-8.14601  14.5275
-8.14643  16.8425
-8.14664  18
1  2  1
2  3  2
3  4  3
4  5  4
5  6  5
6  7  6
7  8  7
8  9  8
9  10  9
10  11  10
11  12  11
12  13  12
13  14  13
14  15  14
15  16  15
16  17  16
17  18  17
18  19  18
19  20  19
20  21  20
21  22  21
22  23  22
23  24  23
24  25  24
25  26  25
26  27  26
27  28  27
28  29  28
29  30  29
30  31  30
31  32  31
32  33  32
33  34  33
34  35  34
35  36  35
36  37  36
37  38  37
38  39  38
39  40  39
40  41  40
41  42  41
42  43  42
 VARIABLES = X Y
 ZONE N = 40, E = 39, DATAPACKING= POINT, ZONETYPE= FETRIANGLE
-8.88178e-16  7.52556
1.09887  7.52556
3.29661  7.52556
5.49435  7.52556
6.73035  7.5373
6.93576  7.55264
7.07208  7.56891
7.20746  7.59176
7.30792  7.61436
7.3741  7.63258
7.43943  7.65372
7.50361  7.67813
7.56627  7.70619
7.61201  7.72986
7.64178  7.74697
7.67089  7.76518
7.69926  7.78453
7.7268  7.80504
7.75343  7.82672
7.77907  7.84956
7.80363  7.87355
7.82708  7.89869
7.84943  7.92496
7.8707  7.95234
7.89093  7.9808
7.91013  8.0103
7.92835  8.04083
7.95374  8.08825
7.98382  8.15338
8.00994  8.22021
8.03252  8.28831
8.05197  8.35734
8.06865  8.42711
8.08922  8.53272
8.10975  8.67471
8.14515  9.89754
8.14559  12.2125
8.14601  14.5275
8.14643  16.8425
8.14664  18
1  2  1
2  3  2
3  4  3
4  5  4
5  6  5
6  7  6
7  8  7
8  9  8
9  10  9
10  11  10
11  12  11
12  13  12
13  14  13
14  15  14
15  16  15
16  17  16
17  18  17
18  19  18
19  20  19
20  21  20
21  22  21
22  23  22
23  24  23
24  25  24
25  26  25
26  27  26
27  28  27
28  29  28
29  30  29
30  31  30
31  32  31
32  33  32
33  34  33
34  35  34
35  36  35
36  37  36
37  38  37
38  39  38
39  40  39
 VARIABLES = X Y
 ZONE N = 10, E = 9, DATAPACKING= POINT, ZONETYPE= FETRIANGLE
8.14664  18
7.12831  18
5.09165  18
3.05499  18
1.01833  18
-1.01833  18
-3.05499  18
-5.09165  18
-7.12831  18
-8.14664  18
1  2  1
2  3  2
3  4  3
4  5  4
5  6  5
6  7  6
7  8  7
8  9  8
9  10  9
 VARIABLES = X Y
 ZONE N = 43, E = 42, DATAPACKING= POINT, ZONETYPE= FETRIANGLE
1.77636e-15  6.54348
-1.25496  6.54348
-3.76487  6.54348
-6.27478  6.54349
-7.68636  6.55665
-7.92098  6.57375
-8.07672  6.59186
-8.23144  6.6173
-8.34631  6.64247
-8.42203  6.66278
-8.49681  6.68636
-8.57033  6.71364
-8.64217  6.74505
-8.69465  6.7716
-8.72883  6.79083
-8.76226  6.81132
-8.79486  6.83313
-8.82651  6.85628
-8.85712  6.88079
-8.88658  6.90667
-8.9148  6.93389
-8.94171  6.96242
-8.96726  6.99217
-8.99146  7.02302
-9.01432  7.05489
-9.03585  7.08766
-9.05609  7.12125
-9.08412  7.17295
-9.1174  7.24395
-9.14638  7.31682
-9.17151  7.3911
-9.1932  7.46644
-9.21185  7.54258
-9.23489  7.6579
-9.25797  7.81299
-9.28017  8.04713
-9.29417  8.36052
-9.29859  8.83291
-9.29998  9.78123
-9.30273  11.6779
-9.30631  14.2067
-9.3098  16.7356
-9.31151  18
1  2  1
2  3  2
3  4  3
4  5  4
5  6  5
6  7  6
7  8  7
8  9  8
9  10  9
10  11  10
11  12  11
12  13  12
13  14  13
14  15  14
15  16  15
16  17  16
17  18  17
18  19  18
19  20  19
20  21  20
21  22  21
22  23  22
23  24  23
24  25  24
25  26  25
26  27  26
27  28  27
28  29  28
29  30  29
30  31  30
31  32  31
32  33  32
33  34  33
34  35  34
35  36  35
36  37  36
37  38  37
38  39  38
39  40  39
40  41  40
41  42  41
42  43  42
 VARIABLES = X Y
 ZONE N = 40, E = 39, DATAPACKING= POINT, ZONETYPE= FETRIANGLE
-8.88178e-16  6.54348
1.25496  6.54348
3.76487  6.54348
6.27478  6.54349
7.68636  6.55665
7.92099  6.57375
8.07672  6.59186
8.23144  6.6173
8.34631  6.64247
8.42203  6.66278
8.49681  6.68636
8.57033  6.71364
8.64217  6.74505
8.69465  6.7716
8.72883  6.79083
8.76227  6.81133
8.79486  6.83313
8.82651  6.85629
8.85712  6.88079
8.88658  6.90667
8.9148  6.93389
8.94171  6.96243
8.96726  6.99217
8.99146  7.02302
9.01432  7.05489
9.03585  7.08766
9.05609  7.12125
9.08412  7.17295
9.1174  7.24396
9.14638  7.31682
9.17151  7.3911
9.1932  7.46644
9.21185  7.54258
9.23489  7.6579
9.25797  7.81299
9.29906  9.14902
9.30273  11.6779
9.30631  14.2067
9.3098  16.7356
9.31151  18
1  2  1
2  3  2
3  4  3
4  5  4
5  6  5
6  7  6
7  8  7
8  9  8
9  10  9
10  11  10
11  12  11
12  13  12
13  14  13
14  15  14
15  16  15
16  17  16
17  18  17
18  19  18
19  20  19
20  21  20
21  22  21
22  23  22
23  24  23
24  25  24
25  26  25
26  27  26
27  28  27
28  29  28
29  30  29
30  31  30
31  32  31
32  33  32
33  34  33
34  35  34
35  36  35
36  37  36
37  38  37
38  39  38
39  40  39
 VARIABLES = X Y
 ZONE N = 10, E = 9, DATAPACKING= POINT, ZONETYPE= FETRIANGLE
9.31151  18
8.14757  18
5.81969  18
3.49182  18
1.16394  18
-1.16394  18
-3.49182  18
-5.81969  18
-8.14757  18
-9.31151  18
1  2  1
2  3  2
3  4  3
4  5  4
5  6  5
6  7  6
7  8  7
8  9  8
9  10  9
 VARIABLES = X Y
 ZONE N = 43, E = 42, DATAPACKING= POINT, ZONETYPE= FETRIANGLE
1.77636e-15  5.52328
-1.37894  5.52328
-4.13682  5.5233
-6.89471  5.52332
-8.44579  5.53644
-8.70369  5.55399
-8.87495  5.57268
-9.04521  5.59901
-9.17176  5.62512
-9.25528  5.6462
-9.33787  5.67069
-9.41923  5.69905
-9.49895  5.73175
-9.5765  5.76929
-9.63286  5.80091
-9.66941  5.82374
-9.70501  5.84801
-9.73955  5.87376
-9.77293  5.90101
-9.80503  5.92975
-9.83575  5.95997
-9.86501  5.99159
-9.89279  6.02452
-9.9191  6.05865
-9.94394  6.09385
-9.96734  6.13003
-9.98934  6.16709
-10.01  6.20491
-10.0385  6.2629
-10.0723  6.34216
-10.1016  6.42317
-10.127  6.50549
-10.1489  6.5888
-10.176  6.71512
-10.2034  6.88522
-10.23  7.14224
-10.2475  7.48647
-10.2543  8.00348
-10.2584  9.0376
-10.2666  11.1058
-10.2772  13.8635
-10.2875  16.6212
-10.2926  18
1  2  1
2  3  2
3  4  3
4  5  4
5  6  5
6  7  6
7  8  7
8  9  8
9  10  9
10  11  10
11  12  11
12  13  12
13  14  13
14  15  14
15  16  15
16  17  16
17  18  17
18  19  18
19  20  19
20  21  20
21  22  21
22  23  22
23  24  23
24  25  24
25  26  25
26  27  26
27  28  27
28  29  28
29  30  29
30  31  30
31  32  31
32  33  32
33  34  33
34  35  34
35  36  35
36  37  36
37  38  37
38  39  38
39  40  39
40  41  40
41  42  41
42  43  42
 VARIABLES = X Y
 ZONE N = 40, E = 39, DATAPACKING= POINT, ZONETYPE= FETRIANGLE
-1.77636e-15  5.52328
1.37894  5.52328
4.13682  5.5233
6.89471  5.52332
8.44579  5.53644
8.70369  5.55399
8.87495  5.57268
9.04521  5.59901
9.17176  5.62512
9.25528  5.6462
9.33787  5.67069
9.41923  5.69905
9.49895  5.73175
9.55735  5.75943
9.59547  5.77949
9.63286  5.80091
9.66941  5.82374
9.70501  5.84801
9.73955  5.87376
9.77293  5.90101
9.80503  5.92975
9.83575  5.95997
9.86501  5.99159
9.89279  6.02452
9.9191  6.05865
9.94394  6.09385
9.96734  6.13003
9.99982  6.18591
10.0385  6.2629
10.0723  6.34216
10.1016  6.42317
10.127  6.50549
10.1489  6.5888
10.176  6.71512
10.2034  6.88522
10.2556  8.34818
10.2666  11.1058
10.2772  13.8635
10.2875  16.6212
10.2926  18
1  2  1
2  3  2
3  4  3
4  5  4
5  6  5
6  7  6
7  8  7
8  9  8
9  10  9
10  11  10
11  12  11
12  13  12
13  14  13
14  15  14
15  16  15
16  17  16
17  18  17
18  19  18
19  20  19
20  21  20
21  22  21
22  23  22
23  24  23
24  25  24
25  26  25
26  27  26
27  28  27
28  29  28
29  30  29
30  31  30
31  32  31
32  33  32
33  34  33
34  35  34
35  36  35
36  37  36
37  38  37
38  39  38
39  40  39
 VARIABLES = X Y
 ZONE N = 10, E = 9, DATAPACKING= POINT, ZONETYPE= FETRIANGLE
10.2926  18
9.00599  18
6.43285  18
3.85971  18
1.28657  18
-1.28657  18
-3.85971  18
-6.43285  18
-9.00599  18
-10.2926  18
1  2  1
2  3  2
3  4  3
4  5  4
5  6  5
6  7  6
7  8  7
8  9  8
9  10  9
 VARIABLES = X Y
 ZONE N = 43, E = 42, DATAPACKING= POINT, ZONETYPE= FETRIANGLE
3.55271e-15  4.47925
-1.48165  4.47927
-4.44495  4.47932
-7.40825  4.47936
-9.07481  4.49505
-9.35181  4.51538
-9.53566  4.53691
-9.71831  4.56711
-9.8539  4.59698
-9.94327  4.62105
-10.0315  4.64898
-10.1183  4.68126
-10.2031  4.71841
-10.2651  4.74977
-10.3054  4.77246
-10.3449  4.79664
-10.3834  4.82235
-10.4208  4.84963
-10.457  4.8785
-10.4919  4.90896
-10.5253  4.94099
-10.5572  4.97455
-10.5875  5.00953
-10.6163  5.04582
-10.6435  5.08329
-10.6691  5.12183
-10.6933  5.16133
-10.7268  5.22215
-10.7667  5.30569
-10.8016  5.39144
-10.832  5.4789
-10.8583  5.56763
-10.8811  5.65734
-10.9095  5.79326
-10.9383  5.97613
-10.9668  6.25233
-10.9863  6.62219
-10.9955  7.17969
-11.0042  8.29903
-11.0215  10.5377
-11.044  13.5226
-11.0658  16.5075
-11.0765  18
1  2  1
2  3  2
3  4  3
4  5  4
5  6  5
6  7  6
7  8  7
8  9  8
9  10  9
10  11  10
11  12  11
12  13  12
13  14  13
14  15  14
15  16  15
16  17  16
17  18  17
18  19  18
19  20  19
20  21  20
21  22  21
22  23  22
23  24  23
24  25  24
25  26  25
26  27  26
27  28  27
28  29  28
29  30  29
30  31  30
31  32  31
32  33  32
33  34  33
34  35  34
35  36  35
36  37  36
37  38  37
38  39  38
39  40  39
40  41  40
41  42  41
42  43  42
 VARIABLES = X Y
 ZONE N = 40, E = 39, DATAPACKING= POINT, ZONETYPE= FETRIANGLE
0  4.47925
1.48165  4.47927
4.44495  4.47932
7.40825  4.47936
9.07481  4.49505
9.35181  4.51538
9.53566  4.53691
9.71831  4.56711
9.8539  4.59698
9.94327  4.62105
10.0315  4.64898
10.1183  4.68126
10.2031  4.71841
10.2651  4.74977
10.3054  4.77246
10.3449  4.79664
10.3834  4.82235
10.4208  4.84963
10.457  4.8785
10.4919  4.90896
10.5253  4.94099
10.5572  4.97455
10.5875  5.00953
10.6163  5.04582
10.6435  5.08329
10.6691  5.12183
10.6933  5.16133
10.7268  5.22215
10.7667  5.30569
10.8016  5.39144
10.832  5.4789
10.8583  5.56763
10.8811  5.65734
10.9095  5.79326
10.9383  5.97613
10.9984  7.5528
11.0215  10.5377
11.044  13.5226
11.0658  16.5075
11.0765  18
1  2  1
2  3  2
3  4  3
4  5  4
5  6  5
6  7  6
7  8  7
8  9  8
9  10  9
10  11  10
11  12  11
12  13  12
13  14  13
14  15  14
15  16  15
16  17  16
17  18  17
18  19  18
19  20  19
20  21  20
21  22  21
22  23  22
23  24  23
24  25  24
25  26  25
26  27  26
27  28  27
28  29  28
29  30  29
30  31  30
31  32  31
32  33  32
33  34  33
34  35  34
35  36  35
36  37  36
37  38  37
38  39  38
39  40  39
 VARIABLES = X Y
 ZONE N = 10, E = 9, DATAPACKING= POINT, ZONETYPE= FETRIANGLE
11.0765  18
9.69194  18
6.92282  18
4.15369  18
1.38456  18
-1.38456  18
-4.15369  18
-6.92282  18
-9.69194  18
-11.0765  18
1  2  1
2  3  2
3  4  3
4  5  4
5  6  5
6  7  6
7  8  7
8  9  8
9  10  9
 VARIABLES = X Y
 ZONE N = 43, E = 42, DATAPACKING= POINT, ZONETYPE= FETRIANGLE
0  3.43869
-1.57434  3.43874
-4.72301  3.43884
-7.87169  3.43893
-9.64215  3.46588
-9.93562  3.49622
-10.1298  3.52746
-10.274  3.55854
-10.3691  3.58367
-10.4631  3.61289
-10.5554  3.6467
-10.6458  3.68566
-10.7118  3.71858
-10.7548  3.74241
-10.797  3.7678
-10.8381  3.79482
-10.8781  3.82348
-10.9168  3.8538
-10.9542  3.88581
-10.9901  3.91947
-11.0243  3.95477
-11.0569  3.99159
-11.0879  4.02982
-11.1172  4.06933
-11.1449  4.11
-11.171  4.15171
-11.2073  4.21596
-11.2506  4.30428
-11.2886  4.39502
-11.3219  4.48761
-11.3508  4.58159
-11.3761  4.67666
-11.4077  4.82076
-11.4403  5.01475
-11.4643  5.20998
-11.488  5.50418
-11.5045  5.89741
-11.5145  6.49139
-11.5299  7.68193
-11.5601  10.063
-11.5993  13.2378
-11.6374  16.4126
-11.656  18
1  2  1
2  3  2
3  4  3
4  5  4
5  6  5
6  7  6
7  8  7
8  9  8
9  10  9
10  11  10
11  12  11
12  13  12
13  14  13
14  15  14
15  16  15
16  17  16
17  18  17
18  19  18
19  20  19
20  21  20
21  22  21
22  23  22
23  24  23
24  25  24
25  26  25
26  27  26
27  28  27
28  29  28
29  30  29
30  31  30
31  32  31
32  33  32
33  34  33
34  35  34
35  36  35
36  37  36
37  38  37
38  39  38
39  40  39
40  41  40
41  42  41
42  43  42
 VARIABLES = X Y
 ZONE N = 42, E = 41, DATAPACKING= POINT, ZONETYPE= FETRIANGLE
0  3.43869
1.57434  3.43874
4.72301  3.43884
7.08452  3.43891
8.26527  3.43893
9.0524  3.44171
9.64215  3.46588
9.93562  3.49622
10.1298  3.52746
10.274  3.55854
10.3691  3.58367
10.4631  3.61289
10.5554  3.6467
10.6458  3.68566
10.7118  3.71858
10.7548  3.74241
10.797  3.7678
10.8381  3.79482
10.8781  3.82348
10.9168  3.8538
10.9542  3.88581
10.9901  3.91947
11.0243  3.95477
11.0569  3.99159
11.0879  4.02982
11.1172  4.06933
11.1449  4.11
11.171  4.15171
11.2073  4.21596
11.2506  4.30428
11.2886  4.39502
11.3219  4.48761
11.3508  4.58159
11.3761  4.67666
11.4077  4.82076
11.4403  5.01475
11.4643  5.20998
11.5196  6.88824
11.5601  10.063
11.5993  13.2378
11.6374  16.4126
11.656  18
1  2  1
2  3  2
3  4  3
4  5  4
5  6  5
6  7  6
7  8  7
8  9  8
9  10  9
10  11  10
11  12  11
12  13  12
13  14  13
14  15  14
15  16  15
16  17  16
17  18  17
18  19  18
19  20  19
20  21  20
21  22  21
22  23  22
23  24  23
24  25  24
25  26  25
26  27  26
27  28  27
28  29  28
29  30  29
30  31  30
31  32  31
32  33  32
33  34  33
34  35  34
35  36  35
36  37  36
37  38  37
38  39  38
39  40  39
40  41  40
41  42  41
 VARIABLES = X Y
 ZONE N = 10, E = 9, DATAPACKING= POINT, ZONETYPE= FETRIANGLE
11.656  18
10.199  18
7.28499  18
4.371  18
1.457  18
-1.457  18
-4.371  18
-7.28499  18
-10.199  18
-11.656  18
1  2  1
2  3  2
3  4  3
4  5  4
5  6  5
6  7  6
7  8  7
8  9  8
9  10  9
 VARIABLES = X Y
 ZONE N = 42, E = 41, DATAPACKING= POINT, ZONETYPE= FETRIANGLE
0  2.45026
-1.64905  2.45035
-4.94716  2.45054
-8.24527  2.45073
-9.99613  2.49013
-10.2007  2.51507
-10.4036  2.5505
-10.5541  2.58582
-10.6531  2.6144
-10.7506  2.64761
-10.8462  2.68602
-10.9393  2.73018
-11.0071  2.76739
-11.0511  2.79425
-11.094  2.8228
-11.1357  2.85308
-11.176  2.88509
-11.215  2.91884
-11.2524  2.95431
-11.2881  2.99144
-11.3221  3.03017
-11.3544  3.07035
-11.3849  3.11185
-11.4138  3.15454
-11.441  3.19829
-11.4667  3.24298
-11.5023  3.31157
-11.5449  3.40541
-11.5824  3.50142
-11.6152  3.59909
-11.644  3.69802
-11.6691  3.79794
-11.7009  3.94919
-11.7341  4.15256
-11.7687  4.45972
-11.8035  5.07712
-11.8215  5.90884
-11.8449  7.15963
-11.8909  9.66123
-11.9507  12.9967
-12.0088  16.3322
-12.0372  18
1  2  1
2  3  2
3  4  3
4  5  4
5  6  5
6  7  6
7  8  7
8  9  8
9  10  9
10  11  10
11  12  11
12  13  12
13  14  13
14  15  14
15  16  15
16  17  16
17  18  17
18  19  18
19  20  19
20  21  20
21  22  21
22  23  22
23  24  23
24  25  24
25  26  25
26  27  26
27  28  27
28  29  28
29  30  29
30  31  30
31  32  31
32  33  32
33  34  33
34  35  34
35  36  35
36  37  36
37  38  37
38  39  38
39  40  39
40  41  40
41  42  41
 VARIABLES = X Y
 ZONE N = 42, E = 41, DATAPACKING= POINT, ZONETYPE= FETRIANGLE
0  2.45026
1.64905  2.45035
4.94716  2.45054
7.42074  2.45069
8.65752  2.45076
9.27588  2.45376
9.68788  2.46707
9.99613  2.49013
10.2007  2.51507
10.3531  2.5405
10.454  2.56135
10.5541  2.58582
10.6531  2.6144
10.7506  2.64761
10.8462  2.68602
10.9393  2.73018
11.0071  2.76739
11.0511  2.79425
11.094  2.8228
11.1357  2.85308
11.176  2.88509
11.215  2.91884
11.2524  2.95431
11.2881  2.99144
11.3221  3.03017
11.3544  3.07035
11.3849  3.11185
11.4138  3.15454
11.454  3.22052
11.5023  3.31157
11.5449  3.40541
11.5824  3.50142
11.6152  3.59909
11.657  3.74787
11.7009  3.94919
11.7341  4.15256
11.7687  4.45972
11.8293  6.32577
11.8909  9.66123
11.9507  12.9967
12.0088  16.3322
12.0372  18
1  2  1
2  3  2
3  4  3
4  5  4
5  6  5
6  7  6
7  8  7
8  9  8
9  10  9
10  11  10
11  12  11
12  13  12
13  14  13
14  15  14
15  16  15
16  17  16
17  18  17
18  19  18
19  20  19
20  21  20
21  22  21
22  23  22
23  24  23
24  25  24
25  26  25
26  27  26
27  28  27
28  29  28
29  30  29
30  31  30
31  32  31
32  33  32
33  34  33
34  35  34
35  36  35
36  37  36
37  38  37
38  39  38
39  40  39
40  41  40
41  42  41
 VARIABLES = X Y
 ZONE N = 10, E = 9, DATAPACKING= POINT, ZONETYPE= FETRIANGLE
12.0372  18
10.5326  18
7.52326  18
4.51396  18
1.50465  18
-1.50465  18
-4.51396  18
-7.52326  18
-10.5326  18
-12.0372  18
1  2  1
2  3  2
3  4  3
4  5  4
5  6  5
6  7  6
7  8  7
8  9  8
9  10  9
 VARIABLES = X Y
 ZONE N = 42, E = 41, DATAPACKING= POINT, ZONETYPE= FETRIANGLE
0  1.59419
-1.65735  1.59436
-4.97204  1.59471
-8.28673  1.59505
-10.0465  1.63202
-10.2522  1.65607
-10.4565  1.69035
-10.608  1.72458
-10.7078  1.75227
-10.8062  1.78445
-10.9029  1.82163
-10.9972  1.86435
-11.0661  1.90032
-11.1109  1.92628
-11.1547  1.95387
-11.1975  1.98313
-11.239  2.01407
-11.2792  2.0467
-11.318  2.08101
-11.3553  2.11697
-11.391  2.15456
-11.4251  2.19386
-11.4578  2.23488
-11.489  2.27756
-11.5188  2.32188
-11.5472  2.36778
-11.5871  2.43921
-11.6349  2.53741
-11.677  2.63821
-11.714  2.74098
-11.7464  2.84525
-11.7748  2.95068
-11.8109  3.11047
-11.849  3.32554
-11.8893  3.65064
-11.9321  4.30465
-11.9567  5.1854
-11.9885  6.51102
-12.0515  9.16228
-12.1336  12.6973
-12.2137  16.2324
-12.253  18
1  2  1
2  3  2
3  4  3
4  5  4
5  6  5
6  7  6
7  8  7
8  9  8
9  10  9
10  11  10
11  12  11
12  13  12
13  14  13
14  15  14
15  16  15
16  17  16
17  18  17
18  19  18
19  20  19
20  21  20
21  22  21
22  23  22
23  24  23
24  25  24
25  26  25
26  27  26
27  28  27
28  29  28
29  30  29
30  31  30
31  32  31
32  33  32
33  34  33
34  35  34
35  36  35
36  37  36
37  38  37
38  39  38
39  40  39
40  41  40
41  42  41
 VARIABLES = X Y
 ZONE N = 42, E = 41, DATAPACKING= POINT, ZONETYPE= FETRIANGLE
0  1.59419
1.65735  1.59436
4.97204  1.59471
7.45806  1.59497
8.70106  1.5951
9.32253  1.59762
9.73663  1.61
10.0465  1.63202
10.2522  1.65607
10.4565  1.69035
10.608  1.72458
10.7078  1.75227
10.8062  1.78445
10.9029  1.82163
10.9972  1.86435
11.0661  1.90032
11.1109  1.92628
11.1547  1.95387
11.1975  1.98313
11.239  2.01407
11.2792  2.0467
11.318  2.08101
11.3553  2.11697
11.391  2.15456
11.4251  2.19386
11.4578  2.23488
11.489  2.27756
11.5188  2.32188
11.5472  2.36778
11.5871  2.43921
11.6349  2.53741
11.677  2.63821
11.714  2.74098
11.7611  2.89784
11.8109  3.11047
11.849  3.32554
11.8893  3.65064
11.9673  5.62727
12.0515  9.16228
12.1336  12.6973
12.2137  16.2324
12.253  18
1  2  1
2  3  2
3  4  3
4  5  4
5  6  5
6  7  6
7  8  7
8  9  8
9  10  9
10  11  10
11  12  11
12  13  12
13  14  13
14  15  14
15  16  15
16  17  16
17  18  17
18  19  18
19  20  19
20  21  20
21  22  21
22  23  22
23  24  23
24  25  24
25  26  25
26  27  26
27  28  27
28  29  28
29  30  29
30  31  30
31  32  31
32  33  32
33  34  33
34  35  34
35  36  35
36  37  36
37  38  37
38  39  38
39  40  39
40  41  40
41  42  41
 VARIABLES = X Y
 ZONE N = 10, E = 9, DATAPACKING= POINT, ZONETYPE= FETRIANGLE
12.253  18
10.7214  18
7.65814  18
4.59488  18
1.53163  18
-1.53163  18
-4.59488  18
-7.65814  18
-10.7214  18
-12.253  18
1  2  1
2  3  2
3  4  3
4  5  4
5  6  5
6  7  6
7  8  7
8  9  8
9  10  9
 VARIABLES = X Y
 ZONE N = 41, E = 40, DATAPACKING= POINT, ZONETYPE= FETRIANGLE
0  0.967087
-1.70377  0.967424
-5.1113  0.968098
-7.66694  0.968604
-8.94476  0.968891
-9.58259  0.976849
-10.0071  1.00087
-10.3238  1.03844
-10.5326  1.07743
-10.6873  1.11638
-10.7889  1.14792
-10.8888  1.18451
-10.9865  1.22672
-11.0813  1.27507
-11.15  1.31564
-11.1945  1.34481
-11.2378  1.37571
-11.2799  1.40836
-11.3205  1.44274
-11.3596  1.47884
-11.3971  1.51661
-11.4329  1.55604
-11.4672  1.59728
-11.5  1.6403
-11.5314  1.68506
-11.5614  1.7315
-11.6036  1.80414
-11.6545  1.90446
-11.6993  2.00759
-11.7387  2.1129
-11.7734  2.21984
-11.8177  2.38255
-11.8648  2.60243
-11.901  2.82434
-11.9286  3.04751
-11.9582  3.38363
-12.0303  5.40686
-12.1318  9.00481
-12.2308  12.6028
-12.3274  16.2009
-12.3748  18
1  2  1
2  3  2
3  4  3
4  5  4
5  6  5
6  7  6
7  8  7
8  9  8
9  10  9
10  11  10
11  12  11
12  13  12
13  14  13
14  15  14
15  16  15
16  17  16
17  18  17
18  19  18
19  20  19
20  21  20
21  22  21
22  23  22
23  24  23
24  25  24
25  26  25
26  27  26
27  28  27
28  29  28
29  30  29
30  31  30
31  32  31
32  33  32
33  34  33
34  35  34
35  36  35
36  37  36
37  38  37
38  39  38
39  40  39
40  41  40
 VARIABLES = X Y
 ZONE N = 43, E = 42, DATAPACKING= POINT, ZONETYPE= FETRIANGLE
0  0.967087
1.70377  0.967424
5.1113  0.968098
7.66694  0.968604
8.94476  0.968891
9.58259  0.976849
9.90109  0.9926
10.113  1.01107
10.3238  1.03844
10.4807  1.06642
10.5844  1.08939
10.6873  1.11638
10.7889  1.14792
10.8888  1.18451
10.9865  1.22672
11.0579  1.26238
11.1044  1.28817
11.15  1.31564
11.1945  1.34481
11.2378  1.37571
11.2799  1.40836
11.3205  1.44274
11.3596  1.47884
11.3971  1.51661
11.4329  1.55604
11.4672  1.59728
11.5  1.6403
11.5314  1.68506
11.5614  1.7315
11.6036  1.80414
11.6545  1.90446
11.6993  2.00759
11.7387  2.1129
11.7734  2.21984
11.8177  2.38255
11.8648  2.60243
11.9157  2.93579
11.9582  3.38363
12.0303  5.40686
12.1318  9.00481
12.2308  12.6028
12.3274  16.2009
12.3748  18
1  2  1
2  3  2
3  4  3
4  5  4
5  6  5
6  7  6
7  8  7
8  9  8
9  10  9
10  11  10
11  12  11
12  13  12
13  14  13
14  15  14
15  16  15
16  17  16
17  18  17
18  19  18
19  20  19
20  21  20
21  22  21
22  23  22
23  24  23
24  25  24
25  26  25
26  27  26
27  28  27
28  29  28
29  30  29
30  31  30
31  32  31
32  33  32
33  34  33
34  35  34
35  36  35
36  37  36
37  38  37
38  39  38
39  40  39
40  41  40
41  42  41
42  43  42
 VARIABLES = X Y
 ZONE N = 10, E = 9, DATAPACKING= POINT, ZONETYPE= FETRIANGLE
12.3748  18
10.8279  18
7.73424  18
4.64054  18
1.54685  18
-1.54685  18
-4.64054  18
-7.73424  18
-10.8279  18
-12.3748  18
1  2  1
2  3  2
3  4  3
4  5  4
5  6  5
6  7  6
7  8  7
8  9  8
9  10  9
 VARIABLES = X Y
 ZONE N = 43, E = 42, DATAPACKING= POINT, ZONETYPE= FETRIANGLE
0  0.576939
-1.71045  0.5777
-5.13134  0.579221
-7.69702  0.580362
-8.97985  0.58103
-9.62002  0.591162
-9.9397  0.609604
-10.1522  0.630771
-10.3633  0.661767
-10.5201  0.693239
-10.6237  0.718975
-10.7262  0.749111
-10.8271  0.784159
-10.926  0.82466
-11.0221  0.871144
-11.0921  0.910224
-11.1375  0.938369
-11.1819  0.968222
-11.225  0.999802
-11.2667  1.03311
-11.3071  1.06814
-11.3459  1.10486
-11.3831  1.14323
-11.4186  1.18325
-11.4527  1.22508
-11.4853  1.26869
-11.5165  1.31404
-11.5464  1.36108
-11.5749  1.40977
-11.6147  1.48488
-11.6624  1.58769
-11.7045  1.69292
-11.7417  1.79997
-11.7745  1.90844
-11.8165  2.07312
-11.8616  2.29525
-11.911  2.63156
-11.9533  3.08302
-12.035  5.1409
-12.1564  8.8148
-12.2747  12.4888
-12.3898  16.1629
-12.4463  18
1  2  1
2  3  2
3  4  3
4  5  4
5  6  5
6  7  6
7  8  7
8  9  8
9  10  9
10  11  10
11  12  11
12  13  12
13  14  13
14  15  14
15  16  15
16  17  16
17  18  17
18  19  18
19  20  19
20  21  20
21  22  21
22  23  22
23  24  23
24  25  24
25  26  25
26  27  26
27  28  27
28  29  28
29  30  29
30  31  30
31  32  31
32  33  32
33  34  33
34  35  34
35  36  35
36  37  36
37  38  37
38  39  38
39  40  39
40  41  40
41  42  41
42  43  42
 VARIABLES = X Y
 ZONE N = 42, E = 41, DATAPACKING= POINT, ZONETYPE= FETRIANGLE
0  0.576939
1.71045  0.5777
5.13134  0.579221
7.69702  0.580362
8.97985  0.58103
9.62002  0.591162
9.9397  0.609604
10.1522  0.630771
10.3633  0.661767
10.5201  0.693239
10.6237  0.718975
10.7262  0.749111
10.8271  0.784159
10.926  0.82466
11.0221  0.871144
11.0921  0.910224
11.1375  0.938369
11.1819  0.968222
11.225  0.999802
11.2667  1.03311
11.3071  1.06814
11.3459  1.10486
11.3831  1.14323
11.4186  1.18325
11.4527  1.22508
11.4853  1.26869
11.5165  1.31404
11.5608  1.38522
11.6147  1.48488
11.6624  1.58769
11.7045  1.69292
11.7417  1.79997
11.7745  1.90844
11.8165  2.07312
11.8616  2.29525
11.911  2.63156
11.9533  3.08302
12.035  5.1409
12.1564  8.8148
12.2747  12.4888
12.3898  16.1629
12.4463  18
1  2  1
2  3  2
3  4  3
4  5  4
5  6  5
6  7  6
7  8  7
8  9  8
9  10  9
10  11  10
11  12  11
12  13  12
13  14  13
14  15  14
15  16  15
16  17  16
17  18  17
18  19  18
19  20  19
20  21  20
21  22  21
22  23  22
23  24  23
24  25  24
25  26  25
26  27  26
27  28  27
28  29  28
29  30  29
30  31  30
31  32  31
32  33  32
33  34  33
34  35  34
35  36  35
36  37  36
37  38  37
38  39  38
39  40  39
40  41  40
41  42  41
 VARIABLES = X Y
 ZONE N = 10, E = 9, DATAPACKING= POINT, ZONETYPE= FETRIANGLE
12.4463  18
10.8905  18
7.77892  18
4.66735  18
1.55578  18
-1.55578  18
-4.66735  18
-7.77892  18
-10.8905  18
-12.4463  18
1  2  1
2  3  2
3  4  3
4  5  4
5  6  5
6  7  6
7  8  7
8  9  8
9  10  9
 VARIABLES = X Y
 ZONE N = 41, E = 40, DATAPACKING= POINT, ZONETYPE= FETRIANGLE
0  0.348477
-1.72095  0.350064
-5.16284  0.353236
-7.74427  0.355615
-9.03494  0.357175
-9.67889  0.37214
-10.0002  0.39611
-10.2134  0.422688
-10.4246  0.460907
-10.581  0.499288
-10.6839  0.530444
-10.7851  0.566667
-10.8841  0.6085
-10.9803  0.656456
-11.0502  0.696709
-11.0955  0.725668
-11.1396  0.756357
-11.1825  0.788784
-11.224  0.822944
-11.264  0.858816
-11.3025  0.896365
-11.3393  0.935534
-11.3745  0.976411
-11.4083  1.01912
-11.4407  1.06361
-11.4717  1.10984
-11.5156  1.18235
-11.5687  1.28296
-11.6158  1.38656
-11.6575  1.49245
-11.6944  1.60008
-11.7419  1.76398
-11.7932  1.9857
-11.8333  2.20968
-11.8779  2.54813
-11.9171  3.00174
-12.0057  5.0718
-12.1459  8.7654
-12.2824  12.4591
-12.4154  16.153
-12.4806  18
1  2  1
2  3  2
3  4  3
4  5  4
5  6  5
6  7  6
7  8  7
8  9  8
9  10  9
10  11  10
11  12  11
12  13  12
13  14  13
14  15  14
15  16  15
16  17  16
17  18  17
18  19  18
19  20  19
20  21  20
21  22  21
22  23  22
23  24  23
24  25  24
25  26  25
26  27  26
27  28  27
28  29  28
29  30  29
30  31  30
31  32  31
32  33  32
33  34  33
34  35  34
35  36  35
36  37  36
37  38  37
38  39  38
39  40  39
40  41  40
 VARIABLES = X Y
 ZONE N = 42, E = 41, DATAPACKING= POINT, ZONETYPE= FETRIANGLE
0  0.348477
1.72095  0.350064
5.16284  0.353236
7.74427  0.355615
9.03494  0.357175
9.67889  0.37214
10.0002  0.39611
10.2134  0.422688
10.372  0.450083
10.477  0.472672
10.581  0.499288
10.6839  0.530444
10.7851  0.566667
10.8841  0.6085
10.9566  0.643867
11.0038  0.669455
11.0502  0.696709
11.0955  0.725668
11.1396  0.756357
11.1825  0.788784
11.224  0.822944
11.264  0.858816
11.3025  0.896365
11.3393  0.935534
11.3745  0.976411
11.4083  1.01912
11.4407  1.06361
11.4717  1.10984
11.5156  1.18235
11.5687  1.28296
11.6158  1.38656
11.6575  1.49245
11.6944  1.60008
11.7419  1.76398
11.7932  1.9857
11.8333  2.20968
11.8998  2.77473
12.0057  5.0718
12.1459  8.7654
12.2824  12.4591
12.4154  16.153
12.4806  18
1  2  1
2  3  2
3  4  3
4  5  4
5  6  5
6  7  6
7  8  7
8  9  8
9  10  9
10  11  10
11  12  11
12  13  12
13  14  13
14  15  14
15  16  15
16  17  16
17  18  17
18  19  18
19  20  19
20  21  20
21  22  21
22  23  22
23  24  23
24  25  24
25  26  25
26  27  26
27  28  27
28  29  28
29  30  29
30  31  30
31  32  31
32  33  32
33  34  33
34  35  34
35  36  35
36  37  36
37  38  37
38  39  38
39  40  39
40  41  40
41  42  41
 VARIABLES = X Y
 ZONE N = 10, E = 9, DATAPACKING= POINT, ZONETYPE= FETRIANGLE
12.4806  18
10.9205  18
7.80035  18
4.68021  18
1.56007  18
-1.56007  18
-4.68021  18
-7.80035  18
-10.9205  18
-12.4806  18
1  2  1
2  3  2
3  4  3
4  5  4
5  6  5
6  7  6
7  8  7
8  9  8
9  10  9
 VARIABLES = X Y
 ZONE N = 43, E = 42, DATAPACKING= POINT, ZONETYPE= FETRIANGLE
0  0.209863
-1.7412  0.212829
-5.22361  0.21876
-7.83541  0.223207
-9.13896  0.227014
-9.77871  0.251918
-10.0969  0.285856
-10.3072  0.321742
-10.4631  0.357859
-10.5657  0.387202
-10.6668  0.421366
-10.7659  0.460873
-10.8625  0.506233
-10.9329  0.544375
-10.9786  0.571854
-11.0233  0.601008
-11.0669  0.631858
-11.1092  0.664409
-11.1501  0.698653
-11.1896  0.734567
-11.2275  0.772111
-11.2639  0.811248
-11.2987  0.852157
-11.3322  0.894873
-11.3643  0.939353
-11.395  0.985556
-11.4244  1.03344
-11.4659  1.10776
-11.5158  1.20971
-11.5601  1.31421
-11.5994  1.42067
-11.6343  1.52864
-11.6653  1.6378
-11.7055  1.80323
-11.7491  2.02594
-11.7837  2.25023
-11.8228  2.58854
-11.8584  3.04123
-11.9546  5.10781
-12.1144  8.79106
-12.2697  12.4745
-12.4209  16.1581
-12.4949  18
1  2  1
2  3  2
3  4  3
4  5  4
5  6  5
6  7  6
7  8  7
8  9  8
9  10  9
10  11  10
11  12  11
12  13  12
13  14  13
14  15  14
15  16  15
16  17  16
17  18  17
18  19  18
19  20  19
20  21  20
21  22  21
22  23  22
23  24  23
24  25  24
25  26  25
26  27  26
27  28  27
28  29  28
29  30  29
30  31  30
31  32  31
32  33  32
33  34  33
34  35  34
35  36  35
36  37  36
37  38  37
38  39  38
39  40  39
40  41  40
41  42  41
42  43  42
 VARIABLES = X Y
 ZONE N = 41, E = 40, DATAPACKING= POINT, ZONETYPE= FETRIANGLE
0  0.209863
1.7412  0.212829
5.22361  0.21876
7.83541  0.223207
9.13896  0.227014
9.67224  0.244605
9.885  0.261036
10.0969  0.285856
10.2549  0.311565
10.3594  0.332811
10.4631  0.357859
10.5657  0.387202
10.6668  0.421366
10.7659  0.460873
10.8625  0.506233
10.9329  0.544375
10.9786  0.571854
11.0233  0.601008
11.0669  0.631858
11.1092  0.664409
11.1501  0.698653
11.1896  0.734567
11.2275  0.772111
11.2639  0.811248
11.2987  0.852157
11.3322  0.894873
11.3643  0.939353
11.4099  1.00929
11.4659  1.10776
11.5158  1.20971
11.5601  1.31421
11.5994  1.42067
11.6503  1.58309
11.7055  1.80323
11.7674  2.13793
11.8425  2.81474
11.9546  5.10781
12.1144  8.79106
12.2697  12.4745
12.4209  16.1581
12.4949  18
1  2  1
2  3  2
3  4  3
4  5  4
5  6  5
6  7  6
7  8  7
8  9  8
9  10  9
10  11  10
11  12  11
12  13  12
13  14  13
14  15  14
15  16  15
16  17  16
17  18  17
18  19  18
19  20  19
20  21  20
21  22  21
22  23  22
23  24  23
24  25  24
25  26  25
26  27  26
27  28  27
28  29  28
29  30  29
30  31  30
31  32  31
32  33  32
33  34  33
34  35  34
35  36  35
36  37  36
37  38  37
38  39  38
39  40  39
40  41  40
 VARIABLES = X Y
 ZONE N = 10, E = 9, DATAPACKING= POINT, ZONETYPE= FETRIANGLE
12.4949  18
10.9331  18
7.80933  18
4.6856  18
1.56187  18
-1.56187  18
-4.6856  18
-7.80933  18
-10.9331  18
-12.4949  18
1  2  1
2  3  2
3  4  3
4  5  4
5  6  5
6  7  6
7  8  7
8  9  8