 VARIABLES = X Y
 ZONE N = 5574, E = 5573, DATAPACKING= POINT, ZONETYPE= FETRIANGLE
-7.5  18
-7.5  16.6181
-7.5  14.4375
-7.5  12.7465
-7.5  10.9896
-7.5  9.96875
-7.49998  9.92189
-7.49996  9.89848
-7.49994  9.88288
-7.49991  9.86729
-7.49987  9.8517
-7.49983  9.83612
-7.49977  9.82055
-7.49971  9.805
-7.49963  9.78945
-7.49957  9.7778
-7.49952  9.77004
-7.49945  9.7584
-7.49936  9.74678
-7.4993  9.73903
-7.49924  9.73128
-7.49917  9.72355
-7.49909  9.71581
-7.49902  9.70808
-7.49894  9.70035
-7.49885  9.69263
-7.49876  9.68491
-7.49867  9.6772
-7.49857  9.66949
-7.49847  9.66179
-7.49836  9.65409
-7.49825  9.6464
-7.49813  9.63872
-7.498  9.63104
-7.49788  9.62336
-7.49774  9.61569
-7.4976  9.60803
-7.49746  9.60037
-7.4973  9.59272
-7.49715  9.58507
-7.49698  9.57743
-7.49686  9.57171
-7.49677  9.5679
-7.49668  9.56408
-7.4966  9.56027
-7.4965  9.55646
-7.49641  9.55265
-7.49627  9.54695
-7.49613  9.54124
-7.49603  9.53744
-7.49593  9.53364
-7.49582  9.52985
-7.49572  9.52605
-7.49561  9.52226
-7.49545  9.51657
-7.49529  9.51089
-7.49517  9.5071
-7.49506  9.50332
-7.49494  9.49953
-7.49483  9.49575
-7.49471  9.49198
-7.49458  9.4882
-7.49446  9.48442
-7.49433  9.48065
-7.49421  9.47688
-7.49408  9.47311
-7.49395  9.46935
-7.49375  9.4637
-7.49354  9.45806
-7.4934  9.4543
-7.49326  9.45055
-7.49312  9.44679
-7.4929  9.44117
-7.49268  9.43554
-7.49253  9.4318
-7.49238  9.42805
-7.49222  9.42431
-7.49206  9.42058
-7.4919  9.41684
-7.49174  9.4131
-7.49158  9.40937
-7.49141  9.40564
-7.49125  9.40192
-7.49108  9.39819
-7.4909  9.39447
-7.49064  9.38889
-7.49037  9.38332
-7.49019  9.3796
-7.49001  9.37589
-7.48982  9.37218
-7.48964  9.36848
-7.48945  9.36477
-7.48925  9.36107
-7.48906  9.35737
-7.48886  9.35368
-7.48866  9.34998
-7.48846  9.34629
-7.48826  9.34261
-7.48805  9.33892
-7.48784  9.33524
-7.48763  9.33156
-7.48741  9.32788
-7.4872  9.3242
-7.48698  9.32053
-7.48676  9.31686
-7.48653  9.31319
-7.48631  9.30953
-7.48608  9.30586
-7.48585  9.30221
-7.48561  9.29855
-7.48538  9.29489
-7.48514  9.29124
-7.4849  9.28759
-7.48465  9.28395
-7.48441  9.28031
-7.48416  9.27667
-7.4839  9.27303
-7.48365  9.26939
-7.48339  9.26576
-7.48313  9.26213
-7.48287  9.25851
-7.4826  9.25489
-7.4824  9.25217
-7.48227  9.25036
-7.48206  9.24765
-7.48186  9.24494
-7.48172  9.24313
-7.48158  9.24133
-7.48144  9.23952
-7.4813  9.23772
-7.48116  9.23591
-7.48102  9.23411
-7.48088  9.23231
-7.48067  9.22961
-7.48045  9.22691
-7.48031  9.22511
-7.48009  9.22241
-7.47987  9.21972
-7.47972  9.21792
-7.4795  9.21523
-7.47927  9.21254
-7.47912  9.21075
-7.47897  9.20895
-7.47882  9.20716
-7.47867  9.20537
-7.47851  9.20358
-7.47836  9.20179
-7.47821  9.20001
-7.47805  9.19822
-7.47789  9.19643
-7.47766  9.19375
-7.47742  9.19108
-7.47726  9.18929
-7.4771  9.18751
-7.47694  9.18573
-7.47678  9.18395
-7.47662  9.18217
-7.47645  9.18039
-7.47629  9.17861
-7.47613  9.17683
-7.47596  9.17506
-7.4758  9.17328
-7.47563  9.1715
-7.47546  9.16973
-7.47529  9.16796
-7.47512  9.16618
-7.47495  9.16441
-7.47478  9.16264
-7.47461  9.16087
-7.47444  9.1591
-7.47427  9.15733
-7.47409  9.15556
-7.47392  9.1538
-7.47374  9.15203
-7.47357  9.15027
-7.47339  9.1485
-7.47321  9.14674
-7.47303  9.14497
-7.47286  9.14321
-7.47268  9.14145
-7.47249  9.13969
-7.47222  9.13705
-7.47195  9.13441
-7.47176  9.13266
-7.47158  9.1309
-7.47139  9.12915
-7.47121  9.12739
-7.47102  9.12564
-7.47083  9.12389
-7.47064  9.12213
-7.47045  9.12038
-7.47026  9.11863
-7.47007  9.11688
-7.46988  9.11514
-7.46969  9.11339
-7.46949  9.11164
-7.4693  9.1099
-7.4691  9.10815
-7.46891  9.10641
-7.46871  9.10466
-7.46851  9.10292
-7.46831  9.10118
-7.46811  9.09944
-7.46791  9.0977
-7.46771  9.09596
-7.46751  9.09423
-7.46731  9.09249
-7.4671  9.09075
-7.4669  9.08902
-7.46669  9.08728
-7.46649  9.08555
-7.46628  9.08382
-7.46607  9.08209
-7.46586  9.08036
-7.46565  9.07863
-7.46544  9.0769
-7.46523  9.07517
-7.46502  9.07344
-7.46481  9.07172
-7.46459  9.06999
-7.46438  9.06827
-7.46416  9.06655
-7.46395  9.06482
-7.46373  9.0631
-7.46351  9.06138
-7.46329  9.05966
-7.46307  9.05794
-7.46285  9.05623
-7.46263  9.05451
-7.46241  9.0528
-7.46218  9.05108
-7.46196  9.04937
-7.46173  9.04765
-7.46151  9.04594
-7.46128  9.04423
-7.46105  9.04252
-7.46082  9.04081
-7.46059  9.0391
-7.46036  9.0374
-7.46013  9.03569
-7.4599  9.03399
-7.45967  9.03228
-7.45943  9.03058
-7.4592  9.02888
-7.45896  9.02717
-7.45872  9.02547
-7.45848  9.02378
-7.45825  9.02208
-7.45801  9.02038
-7.45777  9.01868
-7.45752  9.01699
-7.45728  9.01529
-7.45704  9.0136
-7.45679  9.01191
-7.45655  9.01022
-7.4563  9.00853
-7.45606  9.00684
-7.45581  9.00515
-7.45556  9.00346
-7.45531  9.00177
-7.45506  9.00009
-7.45481  8.9984
-7.45455  8.99672
-7.4543  8.99504
-7.45404  8.99336
-7.45379  8.99167
-7.45353  8.99
-7.45328  8.98832
-7.45302  8.98664
-7.45276  8.98496
-7.4525  8.98329
-7.45224  8.98161
-7.45197  8.97994
-7.45171  8.97827
-7.45145  8.9766
-7.45118  8.97492
-7.45092  8.97326
-7.45065  8.97159
-7.45038  8.96992
-7.45011  8.96825
-7.44984  8.96659
-7.44957  8.96492
-7.4493  8.96326
-7.44903  8.9616
-7.44875  8.95994
-7.44848  8.95828
-7.4482  8.95662
-7.44792  8.95496
-7.44765  8.9533
-7.44737  8.95165
-7.44709  8.94999
-7.44681  8.94834
-7.44653  8.94669
-7.44624  8.94504
-7.44596  8.94339
-7.44568  8.94174
-7.44539  8.94009
-7.4451  8.93844
-7.44482  8.93679
-7.44453  8.93515
-7.44424  8.9335
-7.44395  8.93186
-7.44365  8.93022
-7.44336  8.92858
-7.44292  8.92612
-7.44248  8.92366
-7.44218  8.92203
-7.44188  8.92039
-7.44158  8.91876
-7.44128  8.91712
-7.44098  8.91549
-7.44068  8.91386
-7.44038  8.91223
-7.44007  8.9106
-7.43977  8.90897
-7.43946  8.90735
-7.43916  8.90572
-7.43885  8.9041
-7.43854  8.90247
-7.43823  8.90085
-7.43792  8.89923
-7.43761  8.89761
-7.43729  8.89599
-7.43698  8.89437
-7.43666  8.89275
-7.43635  8.89114
-7.43603  8.88952
-7.43571  8.88791
-7.43539  8.8863
-7.43507  8.88469
-7.43475  8.88308
-7.43443  8.88147
-7.4341  8.87986
-7.43378  8.87825
-7.43345  8.87665
-7.43312  8.87505
-7.4328  8.87344
-7.43247  8.87184
-7.43214  8.87024
-7.43181  8.86864
-7.43147  8.86704
-7.43114  8.86544
-7.43081  8.86385
-7.43047  8.86225
-7.43013  8.86066
-7.42988  8.85946
-7.42971  8.85867
-7.42954  8.85787
-7.42937  8.85708
-7.42912  8.85588
-7.42878  8.85429
-7.42843  8.85271
-7.42809  8.85112
-7.42783  8.84993
-7.42766  8.84914
-7.42749  8.84834
-7.42731  8.84755
-7.42714  8.84676
-7.42697  8.84597
-7.42679  8.84518
-7.42662  8.84439
-7.42644  8.8436
-7.42627  8.84281
-7.42601  8.84162
-7.42566  8.84004
-7.42539  8.83886
-7.42522  8.83807
-7.42504  8.83728
-7.42486  8.83649
-7.4246  8.83531
-7.42424  8.83374
-7.42388  8.83217
-7.42362  8.83099
-7.42344  8.8302
-7.42326  8.82942
-7.42308  8.82863
-7.4229  8.82785
-7.42272  8.82706
-7.42254  8.82628
-7.42236  8.82549
-7.42218  8.82471
-7.42199  8.82393
-7.42181  8.82315
-7.42163  8.82236
-7.42145  8.82158
-7.42127  8.8208
-7.42108  8.82002
-7.4209  8.81924
-7.42072  8.81845
-7.42053  8.81767
-7.42035  8.81689
-7.42017  8.81611
-7.41998  8.81533
-7.4198  8.81455
-7.41952  8.81339
-7.41924  8.81222
-7.41905  8.81144
-7.41887  8.81066
-7.41868  8.80988
-7.4185  8.80911
-7.41831  8.80833
-7.41812  8.80755
-7.41793  8.80678
-7.41775  8.806
-7.41756  8.80522
-7.41737  8.80445
-7.41718  8.80367
-7.41699  8.8029
-7.4168  8.80212
-7.41661  8.80135
-7.41642  8.80057
-7.41614  8.79941
-7.41585  8.79825
-7.41566  8.79748
-7.41547  8.79671
-7.41528  8.79594
-7.41509  8.79517
-7.41489  8.79439
-7.4147  8.79362
-7.41451  8.79285
-7.41431  8.79208
-7.41412  8.79131
-7.41393  8.79054
-7.41373  8.78977
-7.41354  8.789
-7.41335  8.78823
-7.41315  8.78746
-7.41296  8.7867
-7.41276  8.78593
-7.41256  8.78516
-7.41237  8.78439
-7.41217  8.78362
-7.41198  8.78286
-7.41178  8.78209
-7.41158  8.78132
-7.41138  8.78056
-7.41119  8.77979
-7.41099  8.77903
-7.41079  8.77826
-7.41059  8.7775
-7.41039  8.77673
-7.41019  8.77597
-7.40999  8.77521
-7.40979  8.77444
-7.40959  8.77368
-7.40939  8.77292
-7.40919  8.77215
-7.40899  8.77139
-7.40879  8.77063
-7.40859  8.76987
-7.40839  8.76911
-7.40819  8.76835
-7.40798  8.76759
-7.40778  8.76683
-7.40758  8.76607
-7.40737  8.76531
-7.40717  8.76455
-7.40697  8.76379
-7.40676  8.76303
-7.40656  8.76227
-7.40635  8.76151
-7.40615  8.76075
-7.40594  8.76
-7.40574  8.75924
-7.40553  8.75848
-7.40532  8.75773
-7.40512  8.75697
-7.40491  8.75621
-7.4047  8.75546
-7.4045  8.7547
-7.40429  8.75395
-7.40408  8.75319
-7.40387  8.75244
-7.40366  8.75169
-7.40335  8.75056
-7.40303  8.74943
-7.40282  8.74867
-7.40261  8.74792
-7.4024  8.74717
-7.40219  8.74642
-7.40198  8.74567
-7.40177  8.74492
-7.40156  8.74417
-7.40135  8.74341
-7.40113  8.74266
-7.40092  8.74192
-7.40071  8.74117
-7.40049  8.74042
-7.40028  8.73967
-7.40007  8.73892
-7.39985  8.73817
-7.39964  8.73742
-7.39942  8.73668
-7.39921  8.73593
-7.39899  8.73518
-7.39878  8.73444
-7.39856  8.73369
-7.39834  8.73294
-7.39813  8.7322
-7.39791  8.73145
-7.39769  8.73071
-7.39748  8.72996
-7.39726  8.72922
-7.39704  8.72848
-7.39682  8.72773
-7.3966  8.72699
-7.39638  8.72625
-7.39616  8.7255
-7.39594  8.72476
-7.39572  8.72402
-7.3955  8.72328
-7.39528  8.72254
-7.39506  8.7218
-7.39484  8.72106
-7.39462  8.72032
-7.3944  8.71958
-7.39417  8.71884
-7.39395  8.7181
-7.39373  8.71736
-7.39351  8.71662
-7.39328  8.71588
-7.39306  8.71514
-7.39283  8.71441
-7.39261  8.71367
-7.39239  8.71293
-7.39216  8.7122
-7.39194  8.71146
-7.39171  8.71072
-7.39148  8.70999
-7.39126  8.70925
-7.39103  8.70852
-7.3908  8.70778
-7.39058  8.70705
-7.39035  8.70632
-7.39012  8.70558
-7.38989  8.70485
-7.38966  8.70412
-7.38944  8.70338
-7.38921  8.70265
-7.38886  8.70155
-7.38852  8.70046
-7.38829  8.69973
-7.38806  8.699
-7.38782  8.69827
-7.38759  8.69754
-7.38736  8.69681
-7.38713  8.69608
-7.3869  8.69535
-7.38666  8.69462
-7.38643  8.69389
-7.3862  8.69317
-7.38596  8.69244
-7.38573  8.69171
-7.3855  8.69098
-7.38526  8.69026
-7.38503  8.68953
-7.38479  8.68881
-7.38456  8.68808
-7.38432  8.68736
-7.38408  8.68663
-7.38385  8.68591
-7.38361  8.68518
-7.38337  8.68446
-7.38314  8.68374
-7.3829  8.68301
-7.38266  8.68229
-7.38242  8.68157
-7.38218  8.68085
-7.38194  8.68012
-7.38171  8.6794
-7.38147  8.67868
-7.38123  8.67796
-7.38099  8.67724
-7.38074  8.67652
-7.3805  8.6758
-7.38026  8.67508
-7.38002  8.67436
-7.37978  8.67365
-7.37954  8.67293
-7.37929  8.67221
-7.37905  8.67149
-7.37881  8.67078
-7.37856  8.67006
-7.37832  8.66934
-7.37808  8.66863
-7.37783  8.66791
-7.37759  8.6672
-7.37734  8.66648
-7.3771  8.66577
-7.37685  8.66505
-7.3766  8.66434
-7.37636  8.66362
-7.37611  8.66291
-7.37586  8.6622
-7.37562  8.66149
-7.37537  8.66077
-7.37512  8.66006
-7.37487  8.65935
-7.37462  8.65864
-7.37437  8.65793
-7.37412  8.65722
-7.37387  8.65651
-7.37362  8.6558
-7.37337  8.65509
-7.37312  8.65438
-7.37287  8.65367
-7.37262  8.65296
-7.37237  8.65225
-7.37212  8.65155
-7.37186  8.65084
-7.37161  8.65013
-7.37136  8.64943
-7.3711  8.64872
-7.37085  8.64801
-7.3706  8.64731
-7.37034  8.6466
-7.37009  8.6459
-7.36983  8.64519
-7.36958  8.64449
-7.36932  8.64379
-7.36906  8.64308
-7.36881  8.64238
-7.36855  8.64168
-7.36829  8.64098
-7.36804  8.64027
-7.36778  8.63957
-7.36752  8.63887
-7.36726  8.63817
-7.367  8.63747
-7.36674  8.63677
-7.36648  8.63607
-7.36622  8.63537
-7.36596  8.63467
-7.3657  8.63397
-7.36544  8.63327
-7.36518  8.63258
-7.36492  8.63188
-7.36466  8.63118
-7.3644  8.63049
-7.36413  8.62979
-7.36387  8.62909
-7.36361  8.6284
-7.36334  8.6277
-7.36308  8.62701
-7.36281  8.62631
-7.36255  8.62562
-7.36229  8.62492
-7.36202  8.62423
-7.36175  8.62354
-7.36149  8.62284
-7.36122  8.62215
-7.36096  8.62146
-7.36069  8.62077
-7.36042  8.62008
-7.36015  8.61938
-7.35989  8.61869
-7.35962  8.618
-7.35935  8.61731
-7.35908  8.61662
-7.35881  8.61593
-7.35854  8.61525
-7.35827  8.61456
-7.358  8.61387
-7.35773  8.61318
-7.35746  8.61249
-7.35719  8.61181
-7.35692  8.61112
-7.35664  8.61043
-7.35637  8.60975
-7.3561  8.60906
-7.35582  8.60838
-7.35555  8.60769
-7.35528  8.60701
-7.355  8.60632
-7.35473  8.60564
-7.35445  8.60496
-7.35418  8.60427
-7.3539  8.60359
-7.35363  8.60291
-7.35335  8.60223
-7.35307  8.60155
-7.3528  8.60086
-7.35252  8.60018
-7.35224  8.5995
-7.35196  8.59882
-7.35169  8.59814
-7.35141  8.59746
-7.35113  8.59679
-7.35085  8.59611
-7.35057  8.59543
-7.35029  8.59475
-7.35001  8.59407
-7.34973  8.5934
-7.34945  8.59272
-7.34916  8.59204
-7.34888  8.59137
-7.3486  8.59069
-7.34832  8.59002
-7.34804  8.58934
-7.34775  8.58867
-7.34747  8.58799
-7.34718  8.58732
-7.3469  8.58665
-7.34662  8.58597
-7.34633  8.5853
-7.34605  8.58463
-7.34576  8.58396
-7.34547  8.58329
-7.34519  8.58261
-7.3449  8.58194
-7.34461  8.58127
-7.34433  8.5806
-7.34404  8.57993
-7.34375  8.57926
-7.34346  8.5786
-7.34317  8.57793
-7.34288  8.57726
-7.34259  8.57659
-7.3423  8.57592
-7.34201  8.57526
-7.34172  8.57459
-7.34143  8.57393
-7.34114  8.57326
-7.34085  8.57259
-7.34056  8.57193
-7.34026  8.57126
-7.33997  8.5706
-7.33968  8.56994
-7.33938  8.56927
-7.33909  8.56861
-7.3388  8.56795
-7.3385  8.56728
-7.33821  8.56662
-7.33791  8.56596
-7.33762  8.5653
-7.33732  8.56464
-7.33702  8.56398
-7.33673  8.56332
-7.33643  8.56266
-7.33613  8.562
-7.33583  8.56134
-7.33554  8.56068
-7.33524  8.56002
-7.33494  8.55937
-7.33464  8.55871
-7.33434  8.55805
-7.33404  8.5574
-7.33374  8.55674
-7.33344  8.55608
-7.33314  8.55543
-7.33284  8.55477
-7.33253  8.55412
-7.33223  8.55347
-7.33193  8.55281
-7.33163  8.55216
-7.33132  8.5515
-7.33102  8.55085
-7.33071  8.5502
-7.33041  8.54955
-7.33011  8.5489
-7.3298  8.54825
-7.32949  8.54759
-7.32919  8.54694
-7.32888  8.54629
-7.32858  8.54564
-7.32827  8.545
-7.32796  8.54435
-7.32765  8.5437
-7.32735  8.54305
-7.32704  8.5424
-7.32673  8.54176
-7.32642  8.54111
-7.32611  8.54046
-7.3258  8.53982
-7.32549  8.53917
-7.32518  8.53853
-7.32487  8.53788
-7.32456  8.53724
-7.32425  8.53659
-7.32393  8.53595
-7.32362  8.53531
-7.32331  8.53466
-7.323  8.53402
-7.32268  8.53338
-7.32237  8.53274
-7.32205  8.53209
-7.32174  8.53145
-7.32142  8.53081
-7.32111  8.53017
-7.32079  8.52953
-7.32048  8.52889
-7.32016  8.52826
-7.31984  8.52762
-7.31953  8.52698
-7.31921  8.52634
-7.31889  8.5257
-7.31857  8.52507
-7.31825  8.52443
-7.31793  8.52379
-7.31761  8.52316
-7.31729  8.52252
-7.31697  8.52189
-7.31665  8.52125
-7.31633  8.52062
-7.31601  8.51999
-7.31569  8.51935
-7.31537  8.51872
-7.31504  8.51809
-7.31472  8.51745
-7.3144  8.51682
-7.31407  8.51619
-7.31375  8.51556
-7.31343  8.51493
-7.3131  8.5143
-7.31278  8.51367
-7.31245  8.51304
-7.31213  8.51241
-7.3118  8.51178
-7.31147  8.51115
-7.31115  8.51053
-7.31082  8.5099
-7.31049  8.50927
-7.31016  8.50865
-7.30983  8.50802
-7.3095  8.50739
-7.30918  8.50677
-7.30885  8.50614
-7.30852  8.50552
-7.30819  8.5049
-7.30785  8.50427
-7.30752  8.50365
-7.30719  8.50303
-7.30686  8.5024
-7.30653  8.50178
-7.30619  8.50116
-7.30586  8.50054
-7.30553  8.49992
-7.30519  8.4993
-7.30486  8.49868
-7.30453  8.49806
-7.30419  8.49744
-7.30385  8.49682
-7.30352  8.4962
-7.30318  8.49558
-7.30285  8.49497
-7.30251  8.49435
-7.30217  8.49373
-7.30183  8.49311
-7.3015  8.4925
-7.30116  8.49188
-7.30082  8.49127
-7.30048  8.49065
-7.30014  8.49004
-7.2998  8.48943
-7.29946  8.48881
-7.29912  8.4882
-7.29878  8.48759
-7.29844  8.48697
-7.29809  8.48636
-7.29775  8.48575
-7.29741  8.48514
-7.29707  8.48453
-7.29672  8.48392
-7.29638  8.48331
-7.29603  8.4827
-7.29569  8.48209
-7.29535  8.48148
-7.295  8.48087
-7.29465  8.48027
-7.29431  8.47966
-7.29396  8.47905
-7.29361  8.47845
-7.29327  8.47784
-7.29292  8.47723
-7.29257  8.47663
-7.29222  8.47602
-7.29187  8.47542
-7.29152  8.47482
-7.29117  8.47421
-7.29082  8.47361
-7.29047  8.47301
-7.29012  8.4724
-7.28977  8.4718
-7.28942  8.4712
-7.28907  8.4706
-7.28872  8.47
-7.28836  8.4694
-7.28801  8.4688
-7.28766  8.4682
-7.2873  8.4676
-7.28695  8.467
-7.28659  8.4664
-7.28624  8.46581
-7.28588  8.46521
-7.28553  8.46461
-7.28517  8.46402
-7.28481  8.46342
-7.28446  8.46282
-7.28419  8.46238
-7.28401  8.46208
-7.28374  8.46163
-7.28338  8.46104
-7.28302  8.46045
-7.28266  8.45985
-7.2823  8.45926
-7.28203  8.45881
-7.28185  8.45852
-7.28158  8.45807
-7.28131  8.45763
-7.28113  8.45733
-7.28086  8.45689
-7.28059  8.45645
-7.28041  8.45615
-7.28014  8.45571
-7.27987  8.45527
-7.27969  8.45497
-7.27941  8.45453
-7.27905  8.45394
-7.27878  8.4535
-7.2786  8.4532
-7.27841  8.45291
-7.27823  8.45262
-7.27805  8.45232
-7.27787  8.45203
-7.27769  8.45173
-7.2775  8.45144
-7.27732  8.45115
-7.27714  8.45085
-7.27686  8.45041
-7.27659  8.44997
-7.27641  8.44968
-7.27622  8.44939
-7.27604  8.4491
-7.27577  8.44866
-7.2754  8.44807
-7.27512  8.44763
-7.27494  8.44734
-7.27475  8.44705
-7.27457  8.44676
-7.27439  8.44646
-7.2742  8.44617
-7.27393  8.44574
-7.27356  8.44515
-7.27328  8.44472
-7.27309  8.44442
-7.27291  8.44413
-7.27272  8.44384
-7.27254  8.44355
-7.27235  8.44326
-7.27217  8.44297
-7.27198  8.44268
-7.2718  8.44239
-7.27161  8.4421
-7.27143  8.44181
-7.27124  8.44152
-7.27078  8.4408
-7.27031  8.44007
-7.27012  8.43978
-7.26994  8.43949
-7.26975  8.4392
-7.26947  8.43877
-7.26919  8.43834
-7.269  8.43805
-7.26882  8.43776
-7.26863  8.43747
-7.26835  8.43704
-7.26797  8.43646
-7.2676  8.43589
-7.26731  8.43545
-7.26713  8.43517
-7.26694  8.43488
-7.26675  8.43459
-7.26656  8.4343
-7.26637  8.43402
-7.26618  8.43373
-7.266  8.43344
-7.26581  8.43316
-7.26562  8.43287
-7.26543  8.43258
-7.26524  8.4323
-7.26505  8.43201
-7.26486  8.43172
-7.26467  8.43144
-7.26448  8.43115
-7.26429  8.43086
-7.2641  8.43058
-7.26391  8.43029
-7.26372  8.43001
-7.26353  8.42972
-7.26334  8.42944
-7.26315  8.42915
-7.26296  8.42887
-7.26277  8.42858
-7.26258  8.42829
-7.26239  8.42801
-7.2622  8.42772
-7.26201  8.42744
-7.26182  8.42716
-7.26163  8.42687
-7.26144  8.42659
-7.26115  8.42616
-7.26077  8.42559
-7.26048  8.42517
-7.26029  8.42488
-7.26  8.42446
-7.25971  8.42403
-7.25952  8.42375
-7.25933  8.42347
-7.25914  8.42318
-7.25894  8.4229
-7.25875  8.42262
-7.25856  8.42233
-7.25836  8.42205
-7.25817  8.42177
-7.25798  8.42149
-7.25769  8.42106
-7.2574  8.42064
-7.25721  8.42036
-7.25692  8.41993
-7.25663  8.41951
-7.25643  8.41923
-7.25624  8.41895
-7.25604  8.41867
-7.25585  8.41839
-7.25566  8.41811
-7.25546  8.41782
-7.25527  8.41754
-7.25497  8.41712
-7.25468  8.4167
-7.25449  8.41642
-7.2542  8.416
-7.2539  8.41558
-7.25371  8.4153
-7.25351  8.41502
-7.25332  8.41474
-7.25312  8.41446
-7.25293  8.41418
-7.25273  8.4139
-7.25253  8.41362
-7.25234  8.41334
-7.25214  8.41306
-7.25195  8.41278
-7.25175  8.41251
-7.25155  8.41223
-7.25136  8.41195
-7.25116  8.41167
-7.25096  8.41139
-7.25077  8.41111
-7.25057  8.41083
-7.25037  8.41056
-7.25018  8.41028
-7.24998  8.41
-7.24978  8.40972
-7.24948  8.40931
-7.24919  8.40889
-7.24899  8.40861
-7.24879  8.40834
-7.24859  8.40806
-7.2484  8.40778
-7.2482  8.4075
-7.248  8.40723
-7.2478  8.40695
-7.2476  8.40667
-7.24741  8.4064
-7.24721  8.40612
-7.24701  8.40584
-7.24681  8.40557
-7.24661  8.40529
-7.24641  8.40502
-7.24621  8.40474
-7.24601  8.40447
-7.24581  8.40419
-7.24561  8.40391
-7.24541  8.40364
-7.24521  8.40336
-7.24501  8.40309
-7.24481  8.40281
-7.24461  8.40254
-7.24441  8.40226
-7.24421  8.40199
-7.24401  8.40171
-7.24381  8.40144
-7.24361  8.40117
-7.24341  8.40089
-7.24321  8.40062
-7.24301  8.40034
-7.24281  8.40007
-7.24261  8.3998
-7.24241  8.39952
-7.24221  8.39925
-7.242  8.39897
-7.2418  8.3987
-7.2416  8.39843
-7.2414  8.39815
-7.2412  8.39788
-7.241  8.39761
-7.24069  8.3972
-7.24029  8.39665
-7.23999  8.39625
-7.23978  8.39597
-7.23958  8.3957
-7.23938  8.39543
-7.23917  8.39516
-7.23897  8.39489
-7.23877  8.39461
-7.23857  8.39434
-7.23836  8.39407
-7.23816  8.3938
-7.23796  8.39353
-7.23775  8.39326
-7.23755  8.39299
-7.23734  8.39272
-7.23714  8.39244
-7.23694  8.39217
-7.23673  8.3919
-7.23653  8.39163
-7.23632  8.39136
-7.23612  8.39109
-7.23591  8.39082
-7.23571  8.39055
-7.23551  8.39028
-7.2353  8.39001
-7.2351  8.38974
-7.23489  8.38947
-7.23469  8.3892
-7.23448  8.38893
-7.23427  8.38867
-7.23407  8.3884
-7.23386  8.38813
-7.23366  8.38786
-7.23345  8.38759
-7.23325  8.38732
-7.23304  8.38705
-7.23283  8.38678
-7.23263  8.38652
-7.23242  8.38625
-7.23221  8.38598
-7.23201  8.38571
-7.2318  8.38544
-7.23159  8.38518
-7.23139  8.38491
-7.23118  8.38464
-7.23097  8.38437
-7.23077  8.38411
-7.23046  8.38371
-7.23014  8.3833
-7.22994  8.38304
-7.22973  8.38277
-7.22952  8.3825
-7.22931  8.38224
-7.22911  8.38197
-7.2289  8.38171
-7.22869  8.38144
-7.22848  8.38117
-7.22827  8.38091
-7.22806  8.38064
-7.22786  8.38038
-7.22765  8.38011
-7.22744  8.37984
-7.22712  8.37945
-7.22681  8.37905
-7.2266  8.37878
-7.22639  8.37852
-7.22618  8.37825
-7.22597  8.37799
-7.22576  8.37773
-7.22555  8.37746
-7.22534  8.3772
-7.22513  8.37693
-7.22492  8.37667
-7.22471  8.3764
-7.2245  8.37614
-7.22429  8.37588
-7.22408  8.37561
-7.22387  8.37535
-7.22366  8.37509
-7.22345  8.37482
-7.22324  8.37456
-7.22303  8.3743
-7.22281  8.37403
-7.2226  8.37377
-7.22239  8.37351
-7.22207  8.37311
-7.22176  8.37272
-7.22155  8.37246
-7.22133  8.3722
-7.22112  8.37193
-7.22091  8.37167
-7.2207  8.37141
-7.22048  8.37115
-7.22027  8.37089
-7.22006  8.37063
-7.21985  8.37036
-7.21963  8.3701
-7.21942  8.36984
-7.21921  8.36958
-7.21899  8.36932
-7.21878  8.36906
-7.21857  8.3688
-7.21835  8.36854
-7.21814  8.36828
-7.21793  8.36802
-7.21771  8.36776
-7.2175  8.3675
-7.21728  8.36724
-7.21707  8.36698
-7.21686  8.36672
-7.21664  8.36646
-7.21643  8.3662
-7.21621  8.36594
-7.216  8.36568
-7.21578  8.36542
-7.21557  8.36516
-7.21535  8.3649
-7.21514  8.36464
-7.21492  8.36438
-7.21471  8.36413
-7.21449  8.36387
-7.21428  8.36361
-7.21406  8.36335
-7.21385  8.36309
-7.21363  8.36283
-7.21341  8.36258
-7.2132  8.36232
-7.21298  8.36206
-7.21276  8.3618
-7.21255  8.36155
-7.21233  8.36129
-7.21212  8.36103
-7.2119  8.36078
-7.21168  8.36052
-7.21136  8.36013
-7.21092  8.35962
-7.2106  8.35924
-7.21038  8.35898
-7.21016  8.35872
-7.20994  8.35847
-7.20973  8.35821
-7.20951  8.35795
-7.20929  8.3577
-7.20907  8.35744
-7.20885  8.35719
-7.20863  8.35693
-7.20831  8.35655
-7.20798  8.35617
-7.20776  8.35591
-7.20754  8.35566
-7.20732  8.3554
-7.2071  8.35515
-7.20688  8.35489
-7.20666  8.35464
-7.20644  8.35439
-7.20611  8.354
-7.20579  8.35362
-7.20557  8.35337
-7.20535  8.35312
-7.20513  8.35286
-7.20479  8.35248
-7.20446  8.3521
-7.20424  8.35185
-7.20402  8.3516
-7.2038  8.35134
-7.20358  8.35109
-7.20336  8.35084
-7.20314  8.35059
-7.20292  8.35034
-7.2027  8.35008
-7.20247  8.34983
-7.20225  8.34958
-7.20203  8.34933
-7.20181  8.34908
-7.20159  8.34882
-7.20137  8.34857
-7.20114  8.34832
-7.20081  8.34794
-7.20048  8.34757
-7.20025  8.34732
-7.20003  8.34707
-7.19981  8.34682
-7.19959  8.34656
-7.19936  8.34631
-7.19914  8.34606
-7.19892  8.34581
-7.19869  8.34556
-7.19847  8.34531
-7.19825  8.34506
-7.19802  8.34481
-7.1978  8.34456
-7.19757  8.34432
-7.19735  8.34407
-7.19713  8.34382
-7.1969  8.34357
-7.19668  8.34332
-7.19645  8.34307
-7.19623  8.34282
-7.196  8.34257
-7.19578  8.34232
-7.19556  8.34208
-7.19533  8.34183
-7.19499  8.34145
-7.19465  8.34108
-7.19443  8.34083
-7.1942  8.34059
-7.19398  8.34034
-7.19375  8.34009
-7.19353  8.33984
-7.1933  8.3396
-7.19307  8.33935
-7.19285  8.3391
-7.19262  8.33886
-7.1924  8.33861
-7.19217  8.33836
-7.19194  8.33812
-7.19172  8.33787
-7.19149  8.33762
-7.19126  8.33738
-7.19103  8.33713
-7.19081  8.33689
-7.19058  8.33664
-7.19035  8.33639
-7.19012  8.33615
-7.1899  8.3359
-7.18967  8.33566
-7.18944  8.33541
-7.18921  8.33517
-7.18899  8.33492
-7.18864  8.33456
-7.1883  8.33419
-7.18807  8.33394
-7.18784  8.3337
-7.18761  8.33346
-7.18739  8.33321
-7.18716  8.33297
-7.18693  8.33272
-7.1867  8.33248
-7.18647  8.33224
-7.18624  8.33199
-7.18601  8.33175
-7.18578  8.33151
-7.18544  8.33114
-7.18509  8.33078
-7.18486  8.33053
-7.18463  8.33029
-7.1844  8.33005
-7.18417  8.32981
-7.18394  8.32956
-7.18371  8.32932
-7.18348  8.32908
-7.18325  8.32884
-7.18302  8.3286
-7.18278  8.32835
-7.18255  8.32811
-7.18232  8.32787
-7.18209  8.32763
-7.18186  8.32739
-7.18163  8.32715
-7.1814  8.32691
-7.18116  8.32666
-7.18093  8.32642
-7.1807  8.32618
-7.18047  8.32594
-7.18023  8.3257
-7.18  8.32546
-7.17977  8.32522
-7.17954  8.32498
-7.1793  8.32474
-7.17907  8.3245
-7.17884  8.32426
-7.17861  8.32402
-7.17837  8.32378
-7.17802  8.32342
-7.17767  8.32306
-7.17744  8.32283
-7.1772  8.32259
-7.17697  8.32235
-7.17674  8.32211
-7.1765  8.32187
-7.17627  8.32163
-7.17603  8.32139
-7.1758  8.32116
-7.17556  8.32092
-7.17533  8.32068
-7.1751  8.32044
-7.17486  8.3202
-7.17463  8.31997
-7.17439  8.31973
-7.17416  8.31949
-7.17392  8.31925
-7.17368  8.31902
-7.17345  8.31878
-7.17321  8.31854
-7.17298  8.31831
-7.17274  8.31807
-7.17251  8.31783
-7.17227  8.3176
-7.17203  8.31736
-7.1718  8.31712
-7.17156  8.31689
-7.17132  8.31665
-7.17109  8.31642
-7.17085  8.31618
-7.17061  8.31594
-7.17038  8.31571
-7.17014  8.31547
-7.1699  8.31524
-7.16967  8.315
-7.16943  8.31477
-7.16919  8.31453
-7.16895  8.3143
-7.16871  8.31406
-7.16848  8.31383
-7.16824  8.31359
-7.168  8.31336
-7.16776  8.31313
-7.16752  8.31289
-7.16729  8.31266
-7.16705  8.31242
-7.16681  8.31219
-7.16657  8.31196
-7.16633  8.31172
-7.16609  8.31149
-7.16585  8.31126
-7.16561  8.31102
-7.16537  8.31079
-7.16514  8.31056
-7.1649  8.31032
-7.16466  8.31009
-7.16442  8.30986
-7.16418  8.30963
-7.16394  8.30939
-7.1637  8.30916
-7.16346  8.30893
-7.16322  8.3087
-7.16298  8.30847
-7.16274  8.30823
-7.16249  8.308
-7.16225  8.30777
-7.16201  8.30754
-7.16177  8.30731
-7.16153  8.30708
-7.16129  8.30685
-7.16105  8.30661
-7.16081  8.30638
-7.16057  8.30615
-7.16032  8.30592
-7.16008  8.30569
-7.15984  8.30546
-7.1596  8.30523
-7.15936  8.305
-7.15911  8.30477
-7.15887  8.30454
-7.15863  8.30431
-7.15839  8.30408
-7.15814  8.30385
-7.1579  8.30362
-7.15766  8.30339
-7.15742  8.30316
-7.15717  8.30294
-7.15693  8.30271
-7.15669  8.30248
-7.15644  8.30225
-7.1562  8.30202
-7.15596  8.30179
-7.15571  8.30156
-7.15547  8.30133
-7.15523  8.30111
-7.15498  8.30088
-7.15462  8.30054
-7.15425  8.30019
-7.154  8.29997
-7.15376  8.29974
-7.15352  8.29951
-7.15327  8.29928
-7.15303  8.29906
-7.15278  8.29883
-7.15254  8.2986
-7.15229  8.29838
-7.15205  8.29815
-7.1518  8.29792
-7.15155  8.2977
-7.15131  8.29747
-7.15106  8.29724
-7.15082  8.29702
-7.15057  8.29679
-7.15032  8.29657
-7.15008  8.29634
-7.14983  8.29612
-7.14959  8.29589
-7.14934  8.29566
-7.14909  8.29544
-7.14885  8.29521
-7.1486  8.29499
-7.14835  8.29476
-7.14811  8.29454
-7.14786  8.29431
-7.14761  8.29409
-7.14736  8.29386
-7.14712  8.29364
-7.14687  8.29342
-7.14662  8.29319
-7.14637  8.29297
-7.14613  8.29274
-7.14588  8.29252
-7.14563  8.2923
-7.14526  8.29196
-7.14488  8.29163
-7.14464  8.2914
-7.14439  8.29118
-7.14414  8.29096
-7.14389  8.29073
-7.14364  8.29051
-7.14339  8.29029
-7.14314  8.29007
-7.14289  8.28984
-7.14264  8.28962
-7.14239  8.2894
-7.14214  8.28918
-7.14189  8.28895
-7.14164  8.28873
-7.14139  8.28851
-7.14114  8.28829
-7.14089  8.28807
-7.14064  8.28785
-7.14039  8.28762
-7.14014  8.2874
-7.13989  8.28718
-7.13964  8.28696
-7.13939  8.28674
-7.13914  8.28652
-7.13876  8.28619
-7.13839  8.28586
-7.13814  8.28564
-7.13776  8.28531
-7.13738  8.28498
-7.13713  8.28476
-7.13688  8.28454
-7.13663  8.28432
-7.13637  8.2841
-7.13612  8.28388
-7.13574  8.28355
-7.13536  8.28322
-7.13511  8.283
-7.13473  8.28267
-7.13435  8.28235
-7.1341  8.28213
-7.13385  8.28191
-7.13359  8.28169
-7.13334  8.28147
-7.13309  8.28125
-7.13283  8.28104
-7.13258  8.28082
-7.13233  8.2806
-7.13207  8.28038
-7.13182  8.28017
-7.13156  8.27995
-7.13131  8.27973
-7.13105  8.27951
-7.1308  8.2793
-7.13055  8.27908
-7.13029  8.27886
-7.13004  8.27865
-7.12978  8.27843
-7.12953  8.27821
-7.12927  8.278
-7.12902  8.27778
-7.12876  8.27757
-7.12851  8.27735
-7.12812  8.27703
-7.12774  8.2767
-7.12748  8.27649
-7.12723  8.27627
-7.12697  8.27606
-7.12671  8.27584
-7.12646  8.27562
-7.1262  8.27541
-7.12595  8.27519
-7.12569  8.27498
-7.12543  8.27477
-7.12518  8.27455
-7.12492  8.27434
-7.12466  8.27412
-7.1244  8.27391
-7.12415  8.27369
-7.12389  8.27348
-7.12363  8.27327
-7.12337  8.27305
-7.12312  8.27284
-7.12286  8.27262
-7.1226  8.27241
-7.12234  8.2722
-7.12209  8.27198
-7.12183  8.27177
-7.12157  8.27156
-7.12131  8.27135
-7.12092  8.27103
-7.12053  8.27071
-7.12028  8.2705
-7.12002  8.27028
-7.11976  8.27007
-7.1195  8.26986
-7.11924  8.26965
-7.11898  8.26943
-7.11872  8.26922
-7.11846  8.26901
-7.1182  8.2688
-7.11794  8.26859
-7.11768  8.26838
-7.11742  8.26817
-7.11716  8.26795
-7.1169  8.26774
-7.11664  8.26753
-7.11638  8.26732
-7.11612  8.26711
-7.11586  8.2669
-7.1156  8.26669
-7.11534  8.26648
-7.11508  8.26627
-7.11482  8.26606
-7.11456  8.26585
-7.11429  8.26564
-7.11403  8.26543
-7.11377  8.26522
-7.11351  8.26501
-7.11325  8.2648
-7.11299  8.26459
-7.11272  8.26438
-7.11246  8.26417
-7.1122  8.26396
-7.11194  8.26376
-7.11168  8.26355
-7.11141  8.26334
-7.11115  8.26313
-7.11089  8.26292
-7.11063  8.26271
-7.11036  8.2625
-7.1101  8.2623
-7.10984  8.26209
-7.10957  8.26188
-7.10931  8.26167
-7.10905  8.26146
-7.10878  8.26126
-7.10839  8.26095
-7.10799  8.26063
-7.10773  8.26043
-7.10746  8.26022
-7.1072  8.26001
-7.10694  8.25981
-7.10667  8.2596
-7.10641  8.25939
-7.10614  8.25919
-7.10588  8.25898
-7.10561  8.25877
-7.10535  8.25857
-7.10508  8.25836
-7.10482  8.25816
-7.10455  8.25795
-7.10429  8.25774
-7.10402  8.25754
-7.10376  8.25733
-7.10349  8.25713
-7.10323  8.25692
-7.10296  8.25672
-7.1027  8.25651
-7.10243  8.25631
-7.10216  8.2561
-7.1019  8.2559
-7.10163  8.25569
-7.10136  8.25549
-7.1011  8.25528
-7.10083  8.25508
-7.10056  8.25488
-7.1003  8.25467
-7.10003  8.25447
-7.09976  8.25426
-7.0995  8.25406
-7.09923  8.25386
-7.09896  8.25365
-7.09869  8.25345
-7.09843  8.25325
-7.09816  8.25304
-7.09789  8.25284
-7.09762  8.25264
-7.09736  8.25243
-7.09709  8.25223
-7.09682  8.25203