 VARIABLES = X Y
 ZONE N = 2, E = 1, DATAPACKING= POINT, ZONETYPE= FETRIANGLE
0  0
0.8  0.3
1  2  1
