 VARIABLES = X Y
 ZONE N = 5, E = 4, DATAPACKING= POINT, ZONETYPE= FETRIANGLE
0  0
0  0.5
0.5  0.5
1  0.5
1  0
1  2  1
2  3  2
3  4  3
4  5  4
 VARIABLES = X Y
 ZONE N = 5, E = 4, DATAPACKING= POINT, ZONETYPE= FETRIANGLE
0  0
0  3
0.4  3
2  3
2  0
1  2  1
2  3  2
3  4  3
4  5  4
